 Gaussian 16, Revision A.03,
 Gaussian 16:  EM64L-G16RevA.03 25-Dec-2016

 -------------
 #p 6-31g* mp2
 -------------

 ------------------------------------------------------
 Input file generated by CHIRIPA (05-May-2021 14:53:13)
 ------------------------------------------------------
 Symbolic Z-matrix:
 Charge =  0 Multiplicity = 1

                         Standard orientation:
 ---------------------------------------------------------------------
 Center     Atomic      Atomic             Coordinates (Angstroms)
 Number     Number       Type             X           Y           Z
 ---------------------------------------------------------------------
      1          6           0       -2.819169   -0.797053    0.647041
      2          6           0       -2.088806   -1.923585   -0.084725
      3          6           0       -1.138171   -2.701207    0.825985
      4          1           0       -2.079551   -0.109652    1.079927
      5          1           0       -3.382352   -1.221343    1.489772
      6          1           0       -1.528277   -1.497473   -0.926658
      7          1           0       -2.830251   -2.608279   -0.516082
      8          1           0       -1.686275   -3.153085    1.659045
      9          1           0       -0.376903   -2.035967    1.246137
     10          1           0       -0.626605   -3.501696    0.282500
     11          6           0       -3.773164   -0.010494   -0.250147
     12          6           0       -4.503528    1.116038    0.481618
     13          6           0       -5.454162    1.893660   -0.429092
     14          1           0       -3.209981    0.413797   -1.092879
     15          1           0       -4.512783   -0.697894   -0.683034
     16          1           0       -3.762082    1.800732    0.912975
     17          1           0       -5.064057    0.689926    1.323551
     18          1           0       -6.215431    1.228421   -0.849244
     19          1           0       -4.906059    2.345538   -1.262152
     20          1           0       -5.965729    2.694150    0.114393
     21          6           0        2.752822    2.794791    0.277638
     22          6           0        1.696847    2.292016   -0.489602
     23          6           0        1.588416    0.920083   -0.735753
     24          6           0        2.557952    0.075754   -0.196866
     25          6           0        3.621718    0.546233    0.571470
     26          6           0        3.710199    1.921834    0.804796
     27          1           0        2.829305    3.861966    0.463872
     28          1           0        0.951886    2.967614   -0.900263
     29          1           0        0.781216    0.503984   -1.326269
     30          1           0        4.349055   -0.152012    0.967519
     31          1           0        4.531363    2.309479    1.401006
     32          7           0        2.453721   -1.378591   -0.450666
     33          8           0        3.320782   -2.101530    0.035339
     34          8           0        1.506937   -1.768031   -1.130795
 ---------------------------------------------------------------------

 SCF Done:  E(RHF) =  -669.535809245     A.U. after   15 cycles
 E2 =    -0.2092393945D+01 EUMP2 =    -0.67162820318913D+03

 The electronic state is 1-A.
 Alpha  occ. eigenvalues --  -20.60934 -20.60913 -15.85945 -11.31297 -11.27865
 Alpha  occ. eigenvalues --  -11.27852 -11.27594 -11.26871 -11.26860 -11.21604
 Alpha  occ. eigenvalues --  -11.21264 -11.21137 -11.21025 -11.20829 -11.20006
 Alpha  occ. eigenvalues --   -1.59980  -1.39537  -1.19464  -1.08863  -1.08143
 Alpha  occ. eigenvalues --   -1.04863  -1.03116  -0.95719  -0.95547  -0.86587
 Alpha  occ. eigenvalues --   -0.86261  -0.82535  -0.79234  -0.77909  -0.77582
 Alpha  occ. eigenvalues --   -0.72182  -0.71303  -0.70570  -0.65126  -0.64884
 Alpha  occ. eigenvalues --   -0.64768  -0.62213  -0.60512  -0.58982  -0.57134
 Alpha  occ. eigenvalues --   -0.55364  -0.54882  -0.53192  -0.52955  -0.52205
 Alpha  occ. eigenvalues --   -0.51994  -0.49570  -0.48951  -0.48917  -0.47516
 Alpha  occ. eigenvalues --   -0.46311  -0.45458  -0.45346  -0.44869  -0.43371
 Alpha  occ. eigenvalues --   -0.37440  -0.36464
 Alpha virt. eigenvalues --    0.04912   0.11157   0.16391   0.20635   0.22863
 Alpha virt. eigenvalues --    0.24338   0.26117   0.27312   0.27559   0.28339
 Alpha virt. eigenvalues --    0.28980   0.30499   0.31583   0.31829   0.32782

 Mulliken charges:
               1
     1  C   -0.298502
     2  C   -0.303104
     3  C   -0.467255
     4  H    0.144395
     5  H    0.149132
     6  H    0.158507
     7  H    0.149707
     8  H    0.146372
     9  H    0.146628
    10  H    0.175462
    11  C   -0.296489
    12  C   -0.298863
    13  C   -0.475131
    14  H    0.143416
    15  H    0.151230
    16  H    0.148201
    17  H    0.153105
    18  H    0.156526
    19  H    0.152477
    20  H    0.159356
    21  C   -0.170527
    22  C   -0.218908
    23  C   -0.171868
    24  C    0.157485
    25  C   -0.170719
    26  C   -0.218509
    27  H    0.226085
    28  H    0.223960
    29  H    0.276988
    30  H    0.275973
    31  H    0.223919
    32  N    0.489084
    33  O   -0.458902
    34  O   -0.459231
 Sum of Mulliken charges =  -0.00000

 Dipole moment (field-independent basis, Debye):
    X=              0.5676    Y=              4.9941    Z=              0.8245  Tot=              5.0934
 Quadrupole moment (field-independent basis, Debye-Ang):
   XX=            -89.8545   YY=            -94.0993   ZZ=            -94.7406
   XY=             13.6610   XZ=              4.4255   YZ=             -0.9727

 Normal termination of Gaussian 16 at Thu May  6 05:45:17 2021.
