 Gaussian 16, Revision A.03,
 Gaussian 16:  EM64L-G16RevA.03 25-Dec-2016

 -------------
 #p 6-31g* mp2
 -------------

 ------------------------------------------------------
 Input file generated by CHIRIPA (05-May-2021 14:55:24)
 ------------------------------------------------------
 Symbolic Z-matrix:
 Charge =  0 Multiplicity = 1

                         Standard orientation:
 ---------------------------------------------------------------------
 Center     Atomic      Atomic             Coordinates (Angstroms)
 Number     Number       Type             X           Y           Z
 ---------------------------------------------------------------------
      1          6           0       -1.660639    1.198111   -0.170725
      2          6           0       -1.679547   -0.123000    0.288435
      3          6           0       -2.880550   -0.835931    0.350643
      4          6           0       -4.049212   -0.193957   -0.056036
      5          6           0       -4.062865    1.121160   -0.518174
      6          6           0       -2.850261    1.814887   -0.571857
      7          1           0       -0.723165    1.744474   -0.215739
      8          1           0       -0.757204   -0.604537    0.600609
      9          1           0       -2.923857   -1.859696    0.701993
     10          1           0       -4.998467    1.574414   -0.822521
     11          1           0       -2.838582    2.840774   -0.928879
     12          7           0       -5.326801   -0.938540    0.005308
     13          8           0       -6.342746   -0.350363   -0.358754
     14          8           0       -5.288039   -2.096222    0.416290
     15          6           0        5.571684   -0.222307    0.312505
     16          6           0        6.398596   -0.799025   -0.837103
     17          6           0        7.712510   -1.422669   -0.365413
     18          1           0        6.168393    0.532962    0.842084
     19          1           0        5.360404   -1.019318    1.038817
     20          1           0        6.607078   -0.001476   -1.561718
     21          1           0        5.799781   -1.552872   -1.364125
     22          1           0        7.520771   -2.236940    0.340844
     23          1           0        8.332655   -0.676730    0.142128
     24          1           0        8.287758   -1.828727   -1.203307
     25          6           0        4.255260    0.404683   -0.143170
     26          6           0        3.428348    0.981401    1.006438
     27          6           0        2.114433    1.605045    0.534748
     28          1           0        4.466541    1.201694   -0.869481
     29          1           0        3.658552   -0.350586   -0.672749
     30          1           0        4.027163    1.735248    1.533460
     31          1           0        3.219866    0.183852    1.731053
     32          1           0        1.494289    0.859106    0.027207
     33          1           0        2.306174    2.419317   -0.171508
     34          1           0        1.539187    2.011102    1.372643
 ---------------------------------------------------------------------

 SCF Done:  E(RHF) =  -669.535259404     A.U. after   15 cycles
 E2 =    -0.2091336006D+01 EUMP2 =    -0.67162659541090D+03

 The electronic state is 1-A.
 Alpha  occ. eigenvalues --  -20.60693 -20.60688 -15.85747 -11.31087 -11.27666
 Alpha  occ. eigenvalues --  -11.27659 -11.27303 -11.26652 -11.26640 -11.22670
 Alpha  occ. eigenvalues --  -11.22533 -11.22235 -11.22147 -11.22032 -11.21515
 Alpha  occ. eigenvalues --   -1.59770  -1.39324  -1.19256  -1.09239  -1.08646
 Alpha  occ. eigenvalues --   -1.04663  -1.04387  -0.96878  -0.95484  -0.87910
 Alpha  occ. eigenvalues --   -0.86055  -0.82328  -0.80477  -0.78993  -0.77384
 Alpha  occ. eigenvalues --   -0.71965  -0.71094  -0.70357  -0.65875  -0.64906
 Alpha  occ. eigenvalues --   -0.64680  -0.62052  -0.61743  -0.60264  -0.58439
 Alpha  occ. eigenvalues --   -0.56192  -0.55189  -0.53509  -0.53266  -0.52980
 Alpha  occ. eigenvalues --   -0.52750  -0.50801  -0.48769  -0.48722  -0.48718
 Alpha  occ. eigenvalues --   -0.47473  -0.46547  -0.46435  -0.44735  -0.44612
 Alpha  occ. eigenvalues --   -0.37219  -0.36274
 Alpha virt. eigenvalues --    0.05153   0.11363   0.16641   0.20230   0.22246
 Alpha virt. eigenvalues --    0.23628   0.25586   0.25990   0.26817   0.27292
 Alpha virt. eigenvalues --    0.29151   0.29523   0.30677   0.31276   0.31941

 Mulliken charges:
               1
     1  C   -0.177027
     2  C   -0.223202
     3  C   -0.170802
     4  C    0.157961
     5  C   -0.170715
     6  C   -0.220113
     7  H    0.239208
     8  H    0.223562
     9  H    0.275079
    10  H    0.275129
    11  H    0.223328
    12  N    0.488077
    13  O   -0.460710
    14  O   -0.460846
    15  C   -0.299034
    16  C   -0.300215
    17  C   -0.476156
    18  H    0.151171
    19  H    0.150462
    20  H    0.152668
    21  H    0.152539
    22  H    0.155937
    23  H    0.155923
    24  H    0.161963
    25  C   -0.299202
    26  C   -0.300076
    27  C   -0.486158
    28  H    0.151057
    29  H    0.149350
    30  H    0.156626
    31  H    0.153551
    32  H    0.148952
    33  H    0.159263
    34  H    0.162449
 Sum of Mulliken charges =  -0.00000

 Dipole moment (field-independent basis, Debye):
    X=              4.8145    Y=              2.6574    Z=             -0.1988  Tot=              5.5028
 Quadrupole moment (field-independent basis, Debye-Ang):
   XX=           -130.3762   YY=            -92.1427   ZZ=            -94.8866
   XY=            -12.8709   XZ=              1.4577   YZ=             -1.7693

 Normal termination of Gaussian 16 at Wed May  5 20:46:20 2021.
