 Gaussian 16, Revision A.03,
 Gaussian 16:  EM64L-G16RevA.03 25-Dec-2016

 -------------
 #p 6-31g* mp2
 -------------

 ------------------------------------------------------
 Input file generated by CHIRIPA (05-May-2021 14:55:20)
 ------------------------------------------------------
 Symbolic Z-matrix:
 Charge =  0 Multiplicity = 1

                         Standard orientation:
 ---------------------------------------------------------------------
 Center     Atomic      Atomic             Coordinates (Angstroms)
 Number     Number       Type             X           Y           Z
 ---------------------------------------------------------------------
      1          6           0        5.016293    0.812155    0.503328
      2          6           0        5.006187   -0.373006   -0.239512
      3          6           0        3.802198   -1.028032   -0.515014
      4          6           0        2.621608   -0.467412   -0.030038
      5          6           0        2.598982    0.711949    0.712851
      6          6           0        3.814776    1.349902    0.976305
      7          1           0        5.956166    1.314363    0.712666
      8          1           0        5.937774   -0.792926   -0.608103
      9          1           0        3.765526   -1.946817   -1.087645
     10          1           0        1.654240    1.106330    1.066892
     11          1           0        3.819601    2.270180    1.553462
     12          7           0        1.340750   -1.151821   -0.315323
     13          8           0        0.314232   -0.637470    0.123245
     14          8           0        1.387584   -2.189653   -0.972095
     15          6           0       -3.655159    1.217112   -0.012248
     16          6           0       -2.415664    1.879037   -0.615150
     17          6           0       -2.489146    3.406031   -0.588983
     18          1           0       -4.545724    1.552235   -0.561367
     19          1           0       -3.778845    1.561475    1.023855
     20          1           0       -2.293568    1.532462   -1.649361
     21          1           0       -1.527926    1.542150   -0.064654
     22          1           0       -2.587239    3.769431    0.439082
     23          1           0       -3.357231    3.759688   -1.154630
     24          1           0       -1.592960    3.858612   -1.024737
     25          6           0       -3.596574   -0.309300   -0.031221
     26          6           0       -4.836071   -0.971226    0.571680
     27          6           0       -4.762589   -2.498220    0.545514
     28          1           0       -3.472890   -0.653664   -1.067325
     29          1           0       -2.706010   -0.644425    0.517898
     30          1           0       -5.723808   -0.634339    0.021185
     31          1           0       -4.958165   -0.624651    1.605892
     32          1           0       -3.894503   -2.851877    1.111160
     33          1           0       -4.664496   -2.861620   -0.482552
     34          1           0       -5.658774   -2.950802    0.981267
 ---------------------------------------------------------------------

 SCF Done:  E(RHF) =  -669.536049958     A.U. after   15 cycles
 E2 =    -0.2091661237D+01 EUMP2 =    -0.67162771119537D+03

 The electronic state is 1-A.
 Alpha  occ. eigenvalues --  -20.60988 -20.60981 -15.86017 -11.31322 -11.27887
 Alpha  occ. eigenvalues --  -11.27879 -11.27616 -11.26887 -11.26878 -11.20522
 Alpha  occ. eigenvalues --  -11.20498 -11.20406 -11.20320 -11.20030 -11.19935
 Alpha  occ. eigenvalues --   -1.60042  -1.39601  -1.19488  -1.08895  -1.07288
 Alpha  occ. eigenvalues --   -1.04883  -1.02522  -0.95741  -0.94986  -0.86284
 Alpha  occ. eigenvalues --   -0.86002  -0.82581  -0.78565  -0.77645  -0.77026
 Alpha  occ. eigenvalues --   -0.72240  -0.71353  -0.70598  -0.65149  -0.64886
 Alpha  occ. eigenvalues --   -0.63919  -0.62233  -0.59932  -0.58364  -0.56584
 Alpha  occ. eigenvalues --   -0.55387  -0.54285  -0.53215  -0.52975  -0.51731
 Alpha  occ. eigenvalues --   -0.51402  -0.49078  -0.48996  -0.48852  -0.46890
 Alpha  occ. eigenvalues --   -0.45616  -0.45011  -0.44589  -0.44411  -0.42731
 Alpha  occ. eigenvalues --   -0.37465  -0.36483
 Alpha virt. eigenvalues --    0.04883   0.11170   0.16372   0.21085   0.23815
 Alpha virt. eigenvalues --    0.25050   0.26658   0.27468   0.28031   0.28861
 Alpha virt. eigenvalues --    0.29192   0.30745   0.31769   0.32464   0.32573

 Mulliken charges:
               1
     1  C   -0.170515
     2  C   -0.218583
     3  C   -0.170600
     4  C    0.157652
     5  C   -0.170675
     6  C   -0.218668
     7  H    0.226124
     8  H    0.223922
     9  H    0.275922
    10  H    0.275790
    11  H    0.224073
    12  N    0.494169
    13  O   -0.465558
    14  O   -0.458525
    15  C   -0.297669
    16  C   -0.304072
    17  C   -0.475383
    18  H    0.144410
    19  H    0.144155
    20  H    0.151698
    21  H    0.166527
    22  H    0.150745
    23  H    0.153212
    24  H    0.154308
    25  C   -0.302969
    26  C   -0.299177
    27  C   -0.474685
    28  H    0.149929
    29  H    0.170849
    30  H    0.147145
    31  H    0.147543
    32  H    0.158375
    33  H    0.155611
    34  H    0.154918
 Sum of Mulliken charges =  -0.00000

 Dipole moment (field-independent basis, Debye):
    X=              4.8645    Y=              2.2134    Z=              0.9972  Tot=              5.4367
 Quadrupole moment (field-independent basis, Debye-Ang):
   XX=            -71.4666   YY=            -96.8522   ZZ=            -93.4671
   XY=              2.5883   XZ=              1.6492   YZ=              1.8276

 Normal termination of Gaussian 16 at Thu May  6 04:32:59 2021.
