 Gaussian 16, Revision A.03,
 Gaussian 16:  EM64L-G16RevA.03 25-Dec-2016

 -------------
 #p 6-31g* mp2
 -------------

 ------------------------------------------------------
 Input file generated by CHIRIPA (05-May-2021 14:57:22)
 ------------------------------------------------------
 Symbolic Z-matrix:
 Charge =  0 Multiplicity = 1

                         Standard orientation:
 ---------------------------------------------------------------------
 Center     Atomic      Atomic             Coordinates (Angstroms)
 Number     Number       Type             X           Y           Z
 ---------------------------------------------------------------------
      1          6           0        1.998979    1.805376   -0.469535
      2          6           0        1.637384    0.639421    0.213341
      3          6           0        2.573035   -0.377043    0.427595
      4          6           0        3.867235   -0.193518   -0.056817
      5          6           0        4.258028    0.956585   -0.740802
      6          6           0        3.305844    1.959963   -0.943592
      7          1           0        1.265721    2.589907   -0.631520
      8          1           0        0.623183    0.516638    0.582618
      9          1           0        2.320035   -1.289892    0.953063
     10          1           0        5.276695    1.050227   -1.097125
     11          1           0        3.589487    2.864389   -1.474257
     12          7           0        4.866519   -1.262676    0.163936
     13          8           0        6.000242   -1.076714   -0.272787
     14          8           0        4.497112   -2.266401    0.769504
     15          6           0       -5.103465   -1.593804   -1.251289
     16          6           0       -4.420410   -0.555689   -1.893373
     17          6           0       -3.641262    0.342862   -1.158470
     18          6           0       -3.567105    0.173064    0.223180
     19          6           0       -4.235864   -0.851115    0.891842
     20          6           0       -5.009178   -1.737951    0.136822
     21          1           0       -5.706460   -2.287270   -1.829993
     22          1           0       -4.491805   -0.441322   -2.971273
     23          1           0       -3.102066    1.155469   -1.630017
     24          1           0       -4.145414   -0.939605    1.967670
     25          1           0       -5.538557   -2.543230    0.638149
     26          7           0       -2.745343    1.118118    1.011838
     27          8           0       -2.696288    0.946983    2.227956
     28          8           0       -2.165862    2.012093    0.398936
 ---------------------------------------------------------------------

 SCF Done:  E(RHF) =  -868.339998121     A.U. after   16 cycles
 E2 =    -0.2598519194D+01 EUMP2 =    -0.87093851731507D+03

 The electronic state is 1-A.
 Alpha  occ. eigenvalues --  -20.61925 -20.61877 -20.60267 -20.60262 -15.86927
 Alpha  occ. eigenvalues --  -15.85314 -11.31983 -11.30516 -11.28530 -11.28494
 Alpha  occ. eigenvalues --  -11.28177 -11.27450 -11.27428 -11.27091 -11.27035
 Alpha  occ. eigenvalues --  -11.26641 -11.26046 -11.25897  -1.60979  -1.59346
 Alpha  occ. eigenvalues --   -1.40535  -1.38904  -1.20125  -1.18655  -1.09574
 Alpha  occ. eigenvalues --   -1.08051  -1.05475  -1.04034  -0.96458  -0.94921
 Alpha  occ. eigenvalues --   -0.86887  -0.85416  -0.83297  -0.81767  -0.78386
 Alpha  occ. eigenvalues --   -0.76861  -0.73141  -0.72303  -0.71534  -0.71217
 Alpha  occ. eigenvalues --   -0.70668  -0.69691  -0.65774  -0.65466  -0.64288
 Alpha  occ. eigenvalues --   -0.63996  -0.62825  -0.61383  -0.55974  -0.54438
 Alpha  occ. eigenvalues --   -0.53825  -0.53557  -0.52378  -0.52103  -0.49918
 Alpha  occ. eigenvalues --   -0.49868  -0.48301  -0.48275  -0.45991  -0.44347
 Alpha  occ. eigenvalues --   -0.38082  -0.37063  -0.36593  -0.35653
 Alpha virt. eigenvalues --    0.04094   0.05666   0.10594   0.12016   0.15646
 Alpha virt. eigenvalues --    0.17219   0.20764   0.22232   0.26718   0.27467
 Alpha virt. eigenvalues --    0.28010   0.29143   0.30464   0.31640   0.31897

 Mulliken charges:
               1
     1  C   -0.173041
     2  C   -0.220353
     3  C   -0.172743
     4  C    0.157826
     5  C   -0.172354
     6  C   -0.219545
     7  H    0.235638
     8  H    0.231219
     9  H    0.273108
    10  H    0.272907
    11  H    0.221080
    12  N    0.488225
    13  O   -0.462582
    14  O   -0.462466
    15  C   -0.169388
    16  C   -0.218129
    17  C   -0.170907
    18  C    0.155856
    19  C   -0.170653
    20  C   -0.218287
    21  H    0.228878
    22  H    0.225861
    23  H    0.273835
    24  H    0.277103
    25  H    0.226615
    26  N    0.486262
    27  O   -0.455586
    28  O   -0.468381
 Sum of Mulliken charges =  -0.00000

 Dipole moment (field-independent basis, Debye):
    X=             -6.9219    Y=              0.4156    Z=             -3.5473  Tot=              7.7890
 Quadrupole moment (field-independent basis, Debye-Ang):
   XX=           -109.6883   YY=           -105.6606   ZZ=           -101.9281
   XY=             30.4714   XZ=              3.7331   YZ=             -5.0591

 Normal termination of Gaussian 16 at Thu May  6 11:14:39 2021.
