 Gaussian 16, Revision A.03,
 Gaussian 16:  EM64L-G16RevA.03 25-Dec-2016

 -------------
 #p 6-31g* mp2
 -------------

 ------------------------------------------------------
 Input file generated by CHIRIPA (05-May-2021 14:57:25)
 ------------------------------------------------------
 Symbolic Z-matrix:
 Charge =  0 Multiplicity = 1

                         Standard orientation:
 ---------------------------------------------------------------------
 Center     Atomic      Atomic             Coordinates (Angstroms)
 Number     Number       Type             X           Y           Z
 ---------------------------------------------------------------------
      1          6           0       -4.455923    1.989413    0.658379
      2          6           0       -3.160159    2.215853    0.182728
      3          6           0       -2.390266    1.158574   -0.311210
      4          6           0       -2.950048   -0.118110   -0.314750
      5          6           0       -4.238005   -0.375688    0.152273
      6          6           0       -4.989769    0.696645    0.641662
      7          1           0       -5.046953    2.816579    1.040315
      8          1           0       -2.742987    3.218785    0.194497
      9          1           0       -1.384443    1.305666   -0.685514
     10          1           0       -4.626674   -1.386506    0.127759
     11          1           0       -5.995794    0.517832    1.010423
     12          7           0       -2.144592   -1.245371   -0.835252
     13          8           0       -2.660715   -2.360806   -0.827580
     14          8           0       -1.012405   -0.992139   -1.241038
     15          6           0        1.860979   -1.869880    1.503778
     16          6           0        1.977728   -1.953246    0.112396
     17          6           0        2.652516   -0.960452   -0.604241
     18          6           0        3.200917    0.106554    0.105720
     19          6           0        3.101383    0.217842    1.491721
     20          6           0        2.422191   -0.786513    2.187793
     21          1           0        1.335077   -2.645597    2.052491
     22          1           0        1.542878   -2.793458   -0.421451
     23          1           0        2.757709   -1.000081   -1.681637
     24          1           0        3.545337    1.067474    1.996151
     25          1           0        2.333074   -0.719159    3.268333
     26          7           0        3.917617    1.163699   -0.642066
     27          8           0        4.391916    2.093546    0.006828
     28          8           0        3.991496    1.042427   -1.862915
 ---------------------------------------------------------------------

 SCF Done:  E(RHF) =  -868.339425648     A.U. after   16 cycles
 E2 =    -0.2599618449D+01 EUMP2 =    -0.87093904409691D+03

 The electronic state is 1-A.
 Alpha  occ. eigenvalues --  -20.61392 -20.61352 -20.60226 -20.60207 -15.86391
 Alpha  occ. eigenvalues --  -15.85259 -11.31556 -11.30396 -11.28119 -11.28068
 Alpha  occ. eigenvalues --  -11.27808 -11.27085 -11.27039 -11.26973 -11.26787
 Alpha  occ. eigenvalues --  -11.26578 -11.26005 -11.25714  -1.60446  -1.59301
 Alpha  occ. eigenvalues --   -1.40001  -1.38859  -1.19712  -1.18522  -1.09149
 Alpha  occ. eigenvalues --   -1.07970  -1.05078  -1.03861  -0.96017  -0.94846
 Alpha  occ. eigenvalues --   -0.86486  -0.85285  -0.82854  -0.81667  -0.77921
 Alpha  occ. eigenvalues --   -0.76747  -0.72637  -0.71754  -0.71482  -0.70813
 Alpha  occ. eigenvalues --   -0.70625  -0.69642  -0.65365  -0.65076  -0.64166
 Alpha  occ. eigenvalues --   -0.63855  -0.62422  -0.61211  -0.55591  -0.54404
 Alpha  occ. eigenvalues --   -0.53429  -0.53163  -0.52236  -0.51949  -0.49399
 Alpha  occ. eigenvalues --   -0.49377  -0.48250  -0.48217  -0.45447  -0.44313
 Alpha  occ. eigenvalues --   -0.37691  -0.36676  -0.36514  -0.35378
 Alpha virt. eigenvalues --    0.04567   0.05752   0.10982   0.12219   0.16104
 Alpha virt. eigenvalues --    0.17343   0.21163   0.22317   0.27095   0.28015
 Alpha virt. eigenvalues --    0.28329   0.29118   0.30741   0.31874   0.32255

 Mulliken charges:
               1
     1  C   -0.170290
     2  C   -0.219039
     3  C   -0.170412
     4  C    0.157118
     5  C   -0.171453
     6  C   -0.218839
     7  H    0.227127
     8  H    0.226624
     9  H    0.278491
    10  H    0.274899
    11  H    0.224108
    12  N    0.488520
    13  O   -0.463117
    14  O   -0.462534
    15  C   -0.176378
    16  C   -0.202074
    17  C   -0.167954
    18  C    0.154702
    19  C   -0.175805
    20  C   -0.219567
    21  H    0.224089
    22  H    0.234130
    23  H    0.276683
    24  H    0.270614
    25  H    0.218507
    26  N    0.487580
    27  O   -0.465118
    28  O   -0.460613
 Sum of Mulliken charges =  -0.00000

 Dipole moment (field-independent basis, Debye):
    X=             -5.6467    Y=              0.1248    Z=              4.2877  Tot=              7.0912
 Quadrupole moment (field-independent basis, Debye-Ang):
   XX=           -103.0079   YY=           -103.9761   ZZ=           -102.9089
   XY=            -21.3929   XZ=              3.0654   YZ=              0.2697

 Normal termination of Gaussian 16 at Thu May  6 06:43:11 2021.
