 Gaussian 16, Revision A.03,
 Gaussian 16:  EM64L-G16RevA.03 25-Dec-2016

 -------------
 #p 6-31g* mp2
 -------------

 ------------------------------------------------------
 Input file generated by CHIRIPA (05-May-2021 14:55:19)
 ------------------------------------------------------
 Symbolic Z-matrix:
 Charge =  0 Multiplicity = 1

                         Standard orientation:
 ---------------------------------------------------------------------
 Center     Atomic      Atomic             Coordinates (Angstroms)
 Number     Number       Type             X           Y           Z
 ---------------------------------------------------------------------
      1          6           0       -3.680876    1.117686   -1.457350
      2          6           0       -2.586318    1.746611   -0.854924
      3          6           0       -1.798800    1.063130    0.076321
      4          6           0       -2.135979   -0.254240    0.383140
      5          6           0       -3.220202   -0.908206   -0.200022
      6          6           0       -3.993773   -0.205383   -1.128556
      7          1           0       -4.287222    1.656143   -2.179711
      8          1           0       -2.340966    2.774046   -1.108350
      9          1           0       -0.945860    1.525887    0.557743
     10          1           0       -3.439997   -1.933220    0.072844
     11          1           0       -4.843238   -0.696344   -1.594831
     12          7           0       -1.309651   -0.988049    1.367572
     13          8           0       -1.627631   -2.147965    1.620793
     14          8           0       -0.359643   -0.389398    1.867310
     15          6           0        2.621404   -0.534256   -0.347751
     16          6           0        3.593912   -1.528689   -0.982822
     17          6           0        3.005390   -2.934478   -1.106080
     18          1           0        2.330251   -0.899886    0.646477
     19          1           0        1.702108   -0.496533   -0.948472
     20          1           0        4.511648   -1.563495   -0.381852
     21          1           0        3.882932   -1.160554   -1.975575
     22          1           0        2.101251   -2.920848   -1.723290
     23          1           0        2.733539   -3.326079   -0.120511
     24          1           0        3.717351   -3.629156   -1.562581
     25          6           0        3.195345    0.875502   -0.217736
     26          6           0        2.222837    1.869935    0.417335
     27          6           0        2.811359    3.275724    0.540593
     28          1           0        4.114640    0.837780    0.382985
     29          1           0        3.486498    1.241132   -1.211965
     30          1           0        1.933817    1.501800    1.410088
     31          1           0        1.305101    1.904741   -0.183635
     32          1           0        3.083210    3.667325   -0.444976
     33          1           0        3.715498    3.262094    1.157803
     34          1           0        2.099397    3.970403    0.997094
 ---------------------------------------------------------------------

 SCF Done:  E(RHF) =  -669.535761855     A.U. after   15 cycles
 E2 =    -0.2093188197D+01 EUMP2 =    -0.67162895005112D+03

 The electronic state is 1-A.
 Alpha  occ. eigenvalues --  -20.60886 -20.60870 -15.85905 -11.31221 -11.27794
 Alpha  occ. eigenvalues --  -11.27737 -11.27534 -11.26803 -11.26787 -11.21237
 Alpha  occ. eigenvalues --  -11.20991 -11.20916 -11.20908 -11.20585 -11.20447
 Alpha  occ. eigenvalues --   -1.59935  -1.39491  -1.19393  -1.08800  -1.07889
 Alpha  occ. eigenvalues --   -1.04790  -1.03074  -0.95644  -0.95512  -0.86533
 Alpha  occ. eigenvalues --   -0.86188  -0.82481  -0.79170  -0.77811  -0.77376
 Alpha  occ. eigenvalues --   -0.72133  -0.71237  -0.70508  -0.65055  -0.64818
 Alpha  occ. eigenvalues --   -0.64498  -0.62153  -0.60467  -0.58901  -0.57124
 Alpha  occ. eigenvalues --   -0.55300  -0.54793  -0.53123  -0.52899  -0.52242
 Alpha  occ. eigenvalues --   -0.51927  -0.49457  -0.48900  -0.48893  -0.47429
 Alpha  occ. eigenvalues --   -0.46160  -0.45478  -0.45155  -0.44533  -0.43287
 Alpha  occ. eigenvalues --   -0.37374  -0.36382
 Alpha virt. eigenvalues --    0.04956   0.11197   0.16433   0.21021   0.23440
 Alpha virt. eigenvalues --    0.24481   0.26269   0.27344   0.27737   0.28453
 Alpha virt. eigenvalues --    0.29225   0.30886   0.31605   0.31848   0.32309

 Mulliken charges:
               1
     1  C   -0.170371
     2  C   -0.221133
     3  C   -0.174307
     4  C    0.156565
     5  C   -0.170577
     6  C   -0.218784
     7  H    0.225733
     8  H    0.223856
     9  H    0.285069
    10  H    0.275612
    11  H    0.223561
    12  N    0.490306
    13  O   -0.459644
    14  O   -0.462019
    15  C   -0.302467
    16  C   -0.299484
    17  C   -0.475793
    18  H    0.171406
    19  H    0.141266
    20  H    0.151121
    21  H    0.147384
    22  H    0.152216
    23  H    0.161862
    24  H    0.157257
    25  C   -0.297589
    26  C   -0.305980
    27  C   -0.475434
    28  H    0.149908
    29  H    0.144889
    30  H    0.172899
    31  H    0.137657
    32  H    0.152258
    33  H    0.157596
    34  H    0.155162
 Sum of Mulliken charges =  -0.00000

 Dipole moment (field-independent basis, Debye):
    X=             -2.9792    Y=              2.4442    Z=             -3.2331  Tot=              5.0302
 Quadrupole moment (field-independent basis, Debye-Ang):
   XX=            -81.1596   YY=            -94.6249   ZZ=            -97.3492
   XY=             -2.7355   XZ=              7.8108   YZ=              1.8674

 Normal termination of Gaussian 16 at Thu May  6 15:43:58 2021.
