 Gaussian 16, Revision A.03,
 Gaussian 16:  EM64L-G16RevA.03 25-Dec-2016

 -------------
 #p 6-31g* mp2
 -------------

 ------------------------------------------------------
 Input file generated by CHIRIPA (05-May-2021 14:51:14)
 ------------------------------------------------------
 Symbolic Z-matrix:
 Charge =  0 Multiplicity = 1

                         Standard orientation:
 ---------------------------------------------------------------------
 Center     Atomic      Atomic             Coordinates (Angstroms)
 Number     Number       Type             X           Y           Z
 ---------------------------------------------------------------------
      1          6           0        3.689191   -0.228348    0.198134
      2          6           0        4.457575   -0.255602   -1.123542
      3          6           0        5.760604    0.542296   -1.066355
      4          1           0        3.470843    0.814349    0.466557
      5          1           0        4.330630   -0.628614    0.995466
      6          1           0        3.814390    0.143311   -1.918399
      7          1           0        4.673952   -1.298367   -1.388946
      8          1           0        6.424189    0.141422   -0.293338
      9          1           0        5.559743    1.591290   -0.825799
     10          1           0        6.293772    0.509369   -2.021607
     11          6           0        2.384278   -1.021579    0.156717
     12          6           0        1.615893   -0.994325    1.478393
     13          6           0        0.312865   -1.792223    1.421206
     14          1           0        1.742838   -0.621314   -0.640615
     15          1           0        2.602626   -2.064277   -0.111706
     16          1           0        1.399516    0.048439    1.743797
     17          1           0        2.259078   -1.393238    2.273250
     18          1           0        0.513725   -2.841217    1.180650
     19          1           0       -0.350721   -1.391349    0.648189
     20          1           0       -0.220304   -1.759296    2.376458
     21          6           0       -2.400835    1.019088   -0.331473
     22          6           0       -2.044618    2.041514    0.748222
     23          6           0       -0.770039    2.822060    0.425743
     24          1           0       -1.562661    0.319911   -0.456208
     25          1           0       -2.520779    1.537908   -1.292635
     26          1           0       -1.926740    1.521105    1.707332
     27          1           0       -2.883814    2.738223    0.870534
     28          1           0       -0.880110    3.366693   -0.517582
     29          1           0        0.082403    2.142659    0.323970
     30          1           0       -0.533999    3.547332    1.210679
     31          6           0       -3.672633    0.230839   -0.023379
     32          6           0       -4.028851   -0.791587   -1.103072
     33          6           0       -5.303429   -1.572132   -0.780594
     34          1           0       -3.552689   -0.287982    0.937784
     35          1           0       -4.510808    0.930017    0.101356
     36          1           0       -3.189654   -1.488296   -1.225386
     37          1           0       -4.146729   -0.271178   -2.062184
     38          1           0       -6.155871   -0.892732   -0.678822
     39          1           0       -5.193358   -2.116765    0.162731
     40          1           0       -5.539470   -2.297405   -1.565530
 ---------------------------------------------------------------------

 SCF Done:  E(RHF) =  -470.733291500     A.U. after   11 cycles
 E2 =    -0.1583643210D+01 EUMP2 =    -0.47231693470983D+03

 The electronic state is 1-A.
 Alpha  occ. eigenvalues --  -11.21660 -11.21628 -11.21612 -11.21598 -11.21446
 Alpha  occ. eigenvalues --  -11.21415 -11.21381 -11.21352 -11.21137 -11.21128
 Alpha  occ. eigenvalues --  -11.21073 -11.21058  -1.08484  -1.08432  -1.03584
 Alpha  occ. eigenvalues --   -1.03530  -0.96033  -0.95985  -0.87058  -0.86993
 Alpha  occ. eigenvalues --   -0.79634  -0.79605  -0.78301  -0.78241  -0.65302
 Alpha  occ. eigenvalues --   -0.64919  -0.61130  -0.60763  -0.59392  -0.59357
 Alpha  occ. eigenvalues --   -0.57658  -0.57585  -0.55455  -0.55157  -0.52713
 Alpha  occ. eigenvalues --   -0.52689  -0.52478  -0.52394  -0.50127  -0.49779
 Alpha  occ. eigenvalues --   -0.48010  -0.47891  -0.46706  -0.46628  -0.45949
 Alpha  occ. eigenvalues --   -0.45765  -0.45753  -0.45500  -0.43822  -0.43799
 Alpha virt. eigenvalues --    0.18868   0.22483   0.23947   0.25030   0.25743
 Alpha virt. eigenvalues --    0.26023   0.26744   0.27865   0.28752   0.29351
 Alpha virt. eigenvalues --    0.31098   0.31462   0.31649   0.31887   0.32172

 Mulliken charges:
               1
     1  C   -0.298674
     2  C   -0.299716
     3  C   -0.475783
     4  H    0.150079
     5  H    0.149710
     6  H    0.152237
     7  H    0.151911
     8  H    0.155139
     9  H    0.155456
    10  H    0.160322
    11  C   -0.299304
    12  C   -0.302253
    13  C   -0.481939
    14  H    0.149598
    15  H    0.150014
    16  H    0.154354
    17  H    0.152557
    18  H    0.155691
    19  H    0.160471
    20  H    0.160163
    21  C   -0.303459
    22  C   -0.299844
    23  C   -0.478770
    24  H    0.153687
    25  H    0.149748
    26  H    0.152950
    27  H    0.152285
    28  H    0.155393
    29  H    0.156782
    30  H    0.160504
    31  C   -0.298724
    32  C   -0.300074
    33  C   -0.475736
    34  H    0.150625
    35  H    0.149741
    36  H    0.152147
    37  H    0.151822
    38  H    0.155072
    39  H    0.155549
    40  H    0.160269
 Sum of Mulliken charges =  -0.00000

 Dipole moment (field-independent basis, Debye):
    X=              0.0023    Y=             -0.0033    Z=              0.0072  Tot=              0.0083
 Quadrupole moment (field-independent basis, Debye-Ang):
   XX=            -85.8844   YY=            -84.2652   ZZ=            -84.4795
   XY=             -1.9297   XZ=              0.6012   YZ=             -0.4824

 Normal termination of Gaussian 16 at Wed May  5 21:39:04 2021.
