 Gaussian 16, Revision A.03,
 Gaussian 16:  EM64L-G16RevA.03 25-Dec-2016

 -------------
 #p 6-31g* mp2
 -------------

 ------------------------------------------------------
 Input file generated by CHIRIPA (05-May-2021 14:51:11)
 ------------------------------------------------------
 Symbolic Z-matrix:
 Charge =  0 Multiplicity = 1

                         Standard orientation:
 ---------------------------------------------------------------------
 Center     Atomic      Atomic             Coordinates (Angstroms)
 Number     Number       Type             X           Y           Z
 ---------------------------------------------------------------------
      1          6           0        5.085259   -0.217547   -0.006877
      2          6           0        5.252181   -1.737238    0.018844
      3          6           0        6.712888   -2.169353    0.150774
      4          1           0        5.667979    0.194872   -0.841918
      5          1           0        5.512581    0.206882    0.912172
      6          1           0        4.823432   -2.158800   -0.899348
      7          1           0        4.668843   -2.146107    0.853804
      8          1           0        7.148966   -1.776232    1.074837
      9          1           0        7.304433   -1.788996   -0.688275
     10          1           0        6.809159   -3.259456    0.167155
     11          6           0        3.630561    0.229986   -0.138389
     12          6           0        3.463639    1.749676   -0.164110
     13          6           0        2.002931    2.181791   -0.296041
     14          1           0        3.203239   -0.194444   -1.057438
     15          1           0        3.047841   -0.182434    0.696651
     16          1           0        4.046977    2.158545   -0.999071
     17          1           0        3.892388    2.171238    0.754081
     18          1           0        1.411386    1.801434    0.543009
     19          1           0        1.566854    1.788670   -1.220104
     20          1           0        1.906661    3.271894   -0.312422
     21          6           0       -4.665903   -0.702017    0.139257
     22          6           0       -6.133676   -0.758633   -0.285500
     23          6           0       -6.735776   -2.157189   -0.146527
     24          1           0       -4.087857   -1.413461   -0.466264
     25          1           0       -4.580038   -1.037222    1.182167
     26          1           0       -6.216922   -0.422106   -1.326861
     27          1           0       -6.708261   -0.046833    0.320972
     28          1           0       -6.682037   -2.498250    0.892410
     29          1           0       -6.187904   -2.875655   -0.764786
     30          1           0       -7.785571   -2.174847   -0.455525
     31          6           0       -4.049918    0.689579    0.006010
     32          6           0       -2.582144    0.746195    0.430766
     33          6           0       -1.980043    2.144750    0.291793
     34          1           0       -4.135781    1.024783   -1.036900
     35          1           0       -4.627962    1.401023    0.611531
     36          1           0       -2.007559    0.034395   -0.175705
     37          1           0       -2.498898    0.409667    1.472129
     38          1           0       -2.527915    2.863216    0.910053
     39          1           0       -2.033784    2.485812   -0.747144
     40          1           0       -0.930249    2.162408    0.600793
 ---------------------------------------------------------------------

 SCF Done:  E(RHF) =  -470.733076158     A.U. after   11 cycles
 E2 =    -0.1582315359D+01 EUMP2 =    -0.47231539151719D+03

 The electronic state is 1-A.
 Alpha  occ. eigenvalues --  -11.21607 -11.21606 -11.21573 -11.21529 -11.21413
 Alpha  occ. eigenvalues --  -11.21360 -11.21354 -11.21298 -11.21083 -11.21076
 Alpha  occ. eigenvalues --  -11.21050 -11.20911  -1.08439  -1.08379  -1.03547
 Alpha  occ. eigenvalues --   -1.03463  -0.96021  -0.95890  -0.87068  -0.86878
 Alpha  occ. eigenvalues --   -0.79641  -0.79500  -0.78252  -0.78194  -0.65071
 Alpha  occ. eigenvalues --   -0.65011  -0.60953  -0.60867  -0.59360  -0.59312
 Alpha  occ. eigenvalues --   -0.57700  -0.57447  -0.55286  -0.55202  -0.52890
 Alpha  occ. eigenvalues --   -0.52604  -0.52411  -0.52147  -0.49923  -0.49856
 Alpha  occ. eigenvalues --   -0.47992  -0.47763  -0.46629  -0.46570  -0.45791
 Alpha  occ. eigenvalues --   -0.45736  -0.45714  -0.45663  -0.43833  -0.43650
 Alpha virt. eigenvalues --    0.22364   0.22974   0.23546   0.24751   0.26418
 Alpha virt. eigenvalues --    0.26654   0.26937   0.27551   0.27616   0.29046
 Alpha virt. eigenvalues --    0.30124   0.31432   0.31759   0.31807   0.32080

 Mulliken charges:
               1
     1  C   -0.298277
     2  C   -0.299652
     3  C   -0.475712
     4  H    0.149676
     5  H    0.149556
     6  H    0.151899
     7  H    0.151982
     8  H    0.155200
     9  H    0.155182
    10  H    0.160273
    11  C   -0.298391
    12  C   -0.300136
    13  C   -0.477179
    14  H    0.149455
    15  H    0.149717
    16  H    0.151956
    17  H    0.151940
    18  H    0.156119
    19  H    0.155974
    20  H    0.161025
    21  C   -0.298185
    22  C   -0.299598
    23  C   -0.475667
    24  H    0.149522
    25  H    0.149347
    26  H    0.151864
    27  H    0.151883
    28  H    0.155113
    29  H    0.155115
    30  H    0.160150
    31  C   -0.298193
    32  C   -0.299389
    33  C   -0.482336
    34  H    0.149388
    35  H    0.149510
    36  H    0.151860
    37  H    0.151049
    38  H    0.153980
    39  H    0.154694
    40  H    0.169286
 Sum of Mulliken charges =  -0.00000

 Dipole moment (field-independent basis, Debye):
    X=              0.0411    Y=              0.0126    Z=             -0.0056  Tot=              0.0433
 Quadrupole moment (field-independent basis, Debye-Ang):
   XX=            -86.2259   YY=            -85.8749   ZZ=            -82.8021
   XY=             -0.1049   XZ=             -0.4337   YZ=              0.2997

 Normal termination of Gaussian 16 at Thu May  6 07:03:00 2021.
