 Gaussian 16, Revision A.03,
 Gaussian 16:  EM64L-G16RevA.03 25-Dec-2016

 -------------
 #p 6-31g* mp2
 -------------

 ------------------------------------------------------
 Input file generated by CHIRIPA (05-May-2021 14:53:13)
 ------------------------------------------------------
 Symbolic Z-matrix:
 Charge =  0 Multiplicity = 1

                         Standard orientation:
 ---------------------------------------------------------------------
 Center     Atomic      Atomic             Coordinates (Angstroms)
 Number     Number       Type             X           Y           Z
 ---------------------------------------------------------------------
      1          6           0        3.321629   -0.642849    0.474921
      2          6           0        2.844868   -1.890472   -0.269472
      3          6           0        3.018496   -3.169929    0.549452
      4          1           0        4.379382   -0.766458    0.744781
      5          1           0        2.766605   -0.553179    1.419010
      6          1           0        3.399650   -1.977000   -1.212523
      7          1           0        1.788179   -1.763797   -0.537759
      8          1           0        2.451218   -3.109208    1.483856
      9          1           0        4.071844   -3.323622    0.805257
     10          1           0        2.671372   -4.049518   -0.001627
     11          6           0        3.154524    0.644226   -0.330834
     12          6           0        3.631285    1.891849    0.413560
     13          6           0        3.457657    3.171306   -0.405365
     14          1           0        3.709548    0.554556   -1.274922
     15          1           0        2.096771    0.767835   -0.600693
     16          1           0        4.687974    1.765175    0.681847
     17          1           0        3.076503    1.978378    1.356611
     18          1           0        2.404308    3.325000   -0.661170
     19          1           0        4.024935    3.110585   -1.339768
     20          1           0        3.804781    4.050895    0.145715
     21          6           0       -3.012939    2.455130    0.263318
     22          6           0       -4.021704    1.509758    0.475890
     23          6           0       -3.765299    0.146491    0.301788
     24          6           0       -2.483034   -0.237943   -0.087182
     25          6           0       -1.457009    0.679874   -0.306666
     26          6           0       -1.736062    2.037906   -0.126593
     27          1           0       -3.220918    3.512114    0.400884
     28          1           0       -5.014275    1.830888    0.778746
     29          1           0       -4.527748   -0.606632    0.459566
     30          1           0       -0.477387    0.329295   -0.608089
     31          1           0       -0.950703    2.769868   -0.292391
     32          7           0       -2.199601   -1.678401   -0.274657
     33          8           0       -1.061631   -1.991372   -0.617744
     34          8           0       -3.120783   -2.467185   -0.074962
 ---------------------------------------------------------------------

 SCF Done:  E(RHF) =  -669.535904353     A.U. after   15 cycles
 E2 =    -0.2092314607D+01 EUMP2 =    -0.67162821896013D+03

 The electronic state is 1-A.
 Alpha  occ. eigenvalues --  -20.60919 -20.60911 -15.85959 -11.31271 -11.27835
 Alpha  occ. eigenvalues --  -11.27831 -11.27571 -11.26843 -11.26833 -11.21888
 Alpha  occ. eigenvalues --  -11.21598 -11.21546 -11.21148 -11.20841 -11.20303
 Alpha  occ. eigenvalues --   -1.59982  -1.39539  -1.19441  -1.08845  -1.08369
 Alpha  occ. eigenvalues --   -1.04838  -1.03348  -0.95852  -0.95689  -0.86870
 Alpha  occ. eigenvalues --   -0.86239  -0.82527  -0.79496  -0.78105  -0.77552
 Alpha  occ. eigenvalues --   -0.72186  -0.71297  -0.70555  -0.65103  -0.65052
 Alpha  occ. eigenvalues --   -0.64811  -0.62181  -0.60733  -0.59282  -0.57411
 Alpha  occ. eigenvalues --   -0.55353  -0.55161  -0.53168  -0.52933  -0.52519
 Alpha  occ. eigenvalues --   -0.52261  -0.49830  -0.48954  -0.48929  -0.47776
 Alpha  occ. eigenvalues --   -0.46564  -0.45621  -0.45468  -0.44922  -0.43630
 Alpha  occ. eigenvalues --   -0.37419  -0.36437
 Alpha virt. eigenvalues --    0.04946   0.11211   0.16442   0.18698   0.23115
 Alpha virt. eigenvalues --    0.23586   0.24892   0.26654   0.27209   0.28346
 Alpha virt. eigenvalues --    0.29427   0.31129   0.31680   0.32245   0.32692

 Mulliken charges:
               1
     1  C   -0.298233
     2  C   -0.312238
     3  C   -0.473550
     4  H    0.148959
     5  H    0.148529
     6  H    0.148292
     7  H    0.176225
     8  H    0.155761
     9  H    0.149418
    10  H    0.165575
    11  C   -0.298856
    12  C   -0.300022
    13  C   -0.473851
    14  H    0.152359
    15  H    0.139185
    16  H    0.155181
    17  H    0.150897
    18  H    0.144997
    19  H    0.158109
    20  H    0.161208
    21  C   -0.170454
    22  C   -0.218882
    23  C   -0.170136
    24  C    0.158124
    25  C   -0.177956
    26  C   -0.222063
    27  H    0.226158
    28  H    0.223810
    29  H    0.275772
    30  H    0.285437
    31  H    0.224658
    32  N    0.493516
    33  O   -0.466832
    34  O   -0.459097
 Sum of Mulliken charges =  -0.00000

 Dipole moment (field-independent basis, Debye):
    X=             -1.0762    Y=              4.9373    Z=              0.6559  Tot=              5.0957
 Quadrupole moment (field-independent basis, Debye-Ang):
   XX=            -84.3905   YY=            -98.3898   ZZ=            -95.5438
   XY=            -11.3966   XZ=             -3.4556   YZ=             -0.2592

 Normal termination of Gaussian 16 at Wed May  5 21:46:46 2021.
