 Gaussian 16, Revision A.03,
 Gaussian 16:  EM64L-G16RevA.03 25-Dec-2016

 -------------
 #p 6-31g* mp2
 -------------

 ------------------------------------------------------
 Input file generated by CHIRIPA (05-May-2021 14:51:11)
 ------------------------------------------------------
 Symbolic Z-matrix:
 Charge =  0 Multiplicity = 1

                         Standard orientation:
 ---------------------------------------------------------------------
 Center     Atomic      Atomic             Coordinates (Angstroms)
 Number     Number       Type             X           Y           Z
 ---------------------------------------------------------------------
      1          6           0        3.214675    1.002688    0.104354
      2          6           0        2.320782    2.122748   -0.428944
      3          6           0        2.516766    3.442076    0.318557
      4          1           0        3.007749    0.854496    1.173075
      5          1           0        4.265584    1.314821    0.029802
      6          1           0        1.271944    1.808040   -0.354689
      7          1           0        2.529724    2.268160   -1.496565
      8          1           0        3.553905    3.782364    0.234018
      9          1           0        2.288979    3.319630    1.382381
     10          1           0        1.868085    4.228898   -0.078917
     11          6           0        3.030214   -0.322550   -0.632836
     12          6           0        3.924107   -1.442610   -0.099539
     13          6           0        3.728123   -2.761938   -0.847039
     14          1           0        1.979305   -0.634683   -0.558284
     15          1           0        3.237140   -0.174358   -1.701558
     16          1           0        3.715165   -1.588022    0.968082
     17          1           0        4.972945   -1.127903   -0.173793
     18          1           0        3.955911   -2.639492   -1.910863
     19          1           0        2.690984   -3.102226   -0.762500
     20          1           0        4.376804   -3.548760   -0.449566
     21          6           0       -3.877990   -0.251259    0.332766
     22          6           0       -4.559557    0.170287   -0.969443
     23          6           0       -6.070914    0.343922   -0.816328
     24          1           0       -4.322895   -1.192311    0.684088
     25          1           0       -4.085066    0.500552    1.106907
     26          1           0       -4.350106   -0.581396   -1.741271
     27          1           0       -4.112847    1.110345   -1.317808
     28          1           0       -6.296788    1.108487   -0.065981
     29          1           0       -6.535395   -0.592866   -0.491851
     30          1           0       -6.537938    0.645413   -1.759119
     31          6           0       -2.366899   -0.428878    0.195716
     32          6           0       -1.685332   -0.850425    1.497926
     33          6           0       -0.173975   -1.024061    1.344811
     34          1           0       -2.159822   -1.180691   -0.578425
     35          1           0       -1.921994    0.512172   -0.155607
     36          1           0       -2.132043   -1.790482    1.846289
     37          1           0       -1.894783   -0.098742    2.269754
     38          1           0        0.290506   -0.087272    1.020332
     39          1           0        0.051898   -1.788625    0.594462
     40          1           0        0.293049   -1.325550    2.287601
 ---------------------------------------------------------------------

 SCF Done:  E(RHF) =  -470.732221705     A.U. after   11 cycles
 E2 =    -0.1584262149D+01 EUMP2 =    -0.47231648385366D+03

 The electronic state is 1-A.
 Alpha  occ. eigenvalues --  -11.21687 -11.21635 -11.21600 -11.21490 -11.21472
 Alpha  occ. eigenvalues --  -11.21406 -11.21308 -11.21183 -11.21152 -11.21096
 Alpha  occ. eigenvalues --  -11.21075 -11.21007  -1.08504  -1.08343  -1.03604
 Alpha  occ. eigenvalues --   -1.03476  -0.96083  -0.95899  -0.87094  -0.86932
 Alpha  occ. eigenvalues --   -0.79699  -0.79535  -0.78343  -0.78114  -0.65191
 Alpha  occ. eigenvalues --   -0.64970  -0.61096  -0.60792  -0.59423  -0.59287
 Alpha  occ. eigenvalues --   -0.57716  -0.57499  -0.55425  -0.55147  -0.52747
 Alpha  occ. eigenvalues --   -0.52648  -0.52523  -0.52296  -0.50039  -0.49829
 Alpha  occ. eigenvalues --   -0.48083  -0.47859  -0.46750  -0.46523  -0.46040
 Alpha  occ. eigenvalues --   -0.45763  -0.45667  -0.45238  -0.43852  -0.43707
 Alpha virt. eigenvalues --    0.20580   0.22759   0.23277   0.24421   0.26041
 Alpha virt. eigenvalues --    0.26532   0.26778   0.27699   0.27905   0.29623
 Alpha virt. eigenvalues --    0.30316   0.31105   0.31748   0.32178   0.32255

 Mulliken charges:
               1
     1  C   -0.299634
     2  C   -0.303326
     3  C   -0.475516
     4  H    0.150160
     5  H    0.149750
     6  H    0.152777
     7  H    0.152546
     8  H    0.155545
     9  H    0.154964
    10  H    0.159908
    11  C   -0.304721
    12  C   -0.299348
    13  C   -0.476098
    14  H    0.159228
    15  H    0.148235
    16  H    0.152281
    17  H    0.151221
    18  H    0.154923
    19  H    0.154833
    20  H    0.159880
    21  C   -0.298306
    22  C   -0.299743
    23  C   -0.475764
    24  H    0.149884
    25  H    0.149693
    26  H    0.152081
    27  H    0.152135
    28  H    0.155244
    29  H    0.155225
    30  H    0.160425
    31  C   -0.299015
    32  C   -0.299774
    33  C   -0.484019
    34  H    0.149718
    35  H    0.149651
    36  H    0.152311
    37  H    0.152185
    38  H    0.163450
    39  H    0.156346
    40  H    0.160666
 Sum of Mulliken charges =  -0.00000

 Dipole moment (field-independent basis, Debye):
    X=             -0.0577    Y=             -0.0097    Z=              0.0196  Tot=              0.0617
 Quadrupole moment (field-independent basis, Debye-Ang):
   XX=            -85.5883   YY=            -84.8788   ZZ=            -84.5031
   XY=              0.5257   XZ=             -0.4590   YZ=             -0.3995

 Normal termination of Gaussian 16 at Thu May  6 00:41:49 2021.
