 Gaussian 16, Revision A.03,
 Gaussian 16:  EM64L-G16RevA.03 25-Dec-2016

 -------------
 #p 6-31g* mp2
 -------------

 ------------------------------------------------------
 Input file generated by CHIRIPA (05-May-2021 14:55:19)
 ------------------------------------------------------
 Symbolic Z-matrix:
 Charge =  0 Multiplicity = 1

                         Standard orientation:
 ---------------------------------------------------------------------
 Center     Atomic      Atomic             Coordinates (Angstroms)
 Number     Number       Type             X           Y           Z
 ---------------------------------------------------------------------
      1          6           0        1.107050    0.541946    0.835785
      2          6           0        1.290956   -0.472105   -0.109942
      3          6           0        2.578158   -0.864955   -0.488527
      4          6           0        3.663833   -0.219495    0.101373
      5          6           0        3.513159    0.794166    1.046402
      6          6           0        2.216783    1.170737    1.409926
      7          1           0        0.103557    0.840799    1.124029
      8          1           0        0.430971   -0.962187   -0.557481
      9          1           0        2.749258   -1.647057   -1.218226
     10          1           0        4.389906    1.264205    1.475117
     11          1           0        2.076970    1.958571    2.144647
     12          7           0        5.031392   -0.626770   -0.291446
     13          8           0        5.971434   -0.042501    0.242958
     14          8           0        5.137349   -1.522551   -1.126304
     15          6           0       -4.647954   -0.491492    0.013712
     16          6           0       -6.161688   -0.553953    0.220335
     17          6           0       -6.640087   -1.933797    0.673061
     18          1           0       -4.354374   -1.245103   -0.729812
     19          1           0       -4.145266   -0.765368    0.951631
     20          1           0       -6.661372   -0.278700   -0.717304
     21          1           0       -6.451723    0.200023    0.963312
     22          1           0       -6.168329   -2.213332    1.620640
     23          1           0       -6.379170   -2.694775   -0.069525
     24          1           0       -7.725120   -1.955985    0.814734
     25          6           0       -4.154458    0.881561   -0.438963
     26          6           0       -2.640724    0.944022   -0.645587
     27          6           0       -2.162325    2.323865   -1.098313
     28          1           0       -4.657146    1.155436   -1.376883
     29          1           0       -4.448038    1.635172    0.304560
     30          1           0       -2.350690    0.190046   -1.388564
     31          1           0       -2.141041    0.668769    0.292053
     32          1           0       -2.423243    3.084843   -0.355726
     33          1           0       -2.634083    2.603400   -2.045892
     34          1           0       -1.077293    2.346053   -1.239985
 ---------------------------------------------------------------------

 SCF Done:  E(RHF) =  -669.535581318     A.U. after   15 cycles
 E2 =    -0.2091634895D+01 EUMP2 =    -0.67162721621273D+03

 The electronic state is 1-A.
 Alpha  occ. eigenvalues --  -20.60728 -20.60723 -15.85782 -11.31140 -11.27707
 Alpha  occ. eigenvalues --  -11.27700 -11.27409 -11.26716 -11.26695 -11.22878
 Alpha  occ. eigenvalues --  -11.22328 -11.22260 -11.22180 -11.22084 -11.21620
 Alpha  occ. eigenvalues --   -1.59804  -1.39358  -1.19308  -1.09340  -1.08700
 Alpha  occ. eigenvalues --   -1.04710  -1.04416  -0.96822  -0.95538  -0.87835
 Alpha  occ. eigenvalues --   -0.86104  -0.82374  -0.80524  -0.79133  -0.77421
 Alpha  occ. eigenvalues --   -0.71999  -0.71127  -0.70436  -0.65969  -0.64957
 Alpha  occ. eigenvalues --   -0.64713  -0.62059  -0.61820  -0.60213  -0.58445
 Alpha  occ. eigenvalues --   -0.56113  -0.55168  -0.53526  -0.53261  -0.53000
 Alpha  occ. eigenvalues --   -0.52796  -0.50762  -0.48813  -0.48758  -0.48751
 Alpha  occ. eigenvalues --   -0.47558  -0.46663  -0.46571  -0.44765  -0.44653
 Alpha  occ. eigenvalues --   -0.37277  -0.36316
 Alpha virt. eigenvalues --    0.05094   0.11308   0.16547   0.19500   0.22442
 Alpha virt. eigenvalues --    0.23867   0.24995   0.25693   0.27026   0.27552
 Alpha virt. eigenvalues --    0.28933   0.29699   0.30962   0.31210   0.31593

 Mulliken charges:
               1
     1  C   -0.174957
     2  C   -0.222266
     3  C   -0.171092
     4  C    0.158433
     5  C   -0.170912
     6  C   -0.219590
     7  H    0.232942
     8  H    0.225882
     9  H    0.275426
    10  H    0.275354
    11  H    0.223546
    12  N    0.488037
    13  O   -0.460551
    14  O   -0.460572
    15  C   -0.299053
    16  C   -0.300287
    17  C   -0.476231
    18  H    0.150010
    19  H    0.148080
    20  H    0.153665
    21  H    0.152920
    22  H    0.155448
    23  H    0.155988
    24  H    0.162490
    25  C   -0.297766
    26  C   -0.304894
    27  C   -0.479700
    28  H    0.153690
    29  H    0.151573
    30  H    0.152385
    31  H    0.141865
    32  H    0.156263
    33  H    0.161187
    34  H    0.162688
 Sum of Mulliken charges =  -0.00000

 Dipole moment (field-independent basis, Debye):
    X=             -5.0578    Y=              1.4733    Z=              1.3215  Tot=              5.4313
 Quadrupole moment (field-independent basis, Debye-Ang):
   XX=           -129.2135   YY=            -94.1619   ZZ=            -92.0573
   XY=              7.3394   XZ=              6.4681   YZ=              2.8254

 Normal termination of Gaussian 16 at Thu May  6 06:06:30 2021.
