 Gaussian 16, Revision A.03,
 Gaussian 16:  EM64L-G16RevA.03 25-Dec-2016

 -------------
 #p 6-31g* mp2
 -------------

 ------------------------------------------------------
 Input file generated by CHIRIPA (05-May-2021 14:51:13)
 ------------------------------------------------------
 Symbolic Z-matrix:
 Charge =  0 Multiplicity = 1

                         Standard orientation:
 ---------------------------------------------------------------------
 Center     Atomic      Atomic             Coordinates (Angstroms)
 Number     Number       Type             X           Y           Z
 ---------------------------------------------------------------------
      1          6           0       -5.069426    0.059952    0.119533
      2          6           0       -6.181201   -0.973163   -0.066517
      3          6           0       -7.572179   -0.400551    0.207506
      4          1           0       -5.110389    0.452711    1.144720
      5          1           0       -5.254497    0.911952   -0.549227
      6          1           0       -5.993338   -1.823586    0.601394
      7          1           0       -6.137466   -1.363649   -1.091322
      8          1           0       -7.784812    0.434664   -0.467627
      9          1           0       -7.639866   -0.027886    1.234706
     10          1           0       -8.351829   -1.156009    0.068620
     11          6           0       -3.673026   -0.497457   -0.150821
     12          6           0       -2.561251    0.535658    0.035230
     13          6           0       -1.170273   -0.036954   -0.238793
     14          1           0       -3.487955   -1.349457    0.517939
     15          1           0       -3.632063   -0.890217   -1.176007
     16          1           0       -2.604986    0.926143    1.060034
     17          1           0       -2.749114    1.386080   -0.632681
     18          1           0       -1.102586   -0.409619   -1.265994
     19          1           0       -0.957640   -0.872169    0.436339
     20          1           0       -0.390623    0.718503   -0.099907
     21          6           0        4.798208   -0.318671   -0.319458
     22          6           0        5.913244   -0.854810    0.579004
     23          6           0        6.758777   -1.929244   -0.105439
     24          1           0        4.153380   -1.152225   -0.629827
     25          1           0        5.241751    0.091859   -1.237135
     26          1           0        5.467837   -1.262956    1.495326
     27          1           0        6.555382   -0.019855    0.887424
     28          1           0        7.229902   -1.530640   -1.009738
     29          1           0        6.136178   -2.780805   -0.398382
     30          1           0        7.549838   -2.298518    0.554652
     31          6           0        3.944243    0.756177    0.350746
     32          6           0        2.829208    1.292316   -0.547717
     33          6           0        1.983675    2.366750    0.136726
     34          1           0        3.500700    0.345647    1.268422
     35          1           0        4.589073    1.589731    0.661114
     36          1           0        2.187070    0.457360   -0.856138
     37          1           0        3.274616    1.700461   -1.464039
     38          1           0        2.606275    3.218310    0.429670
     39          1           0        1.512549    1.968145    1.041025
     40          1           0        1.192615    2.736023   -0.523364
 ---------------------------------------------------------------------

 SCF Done:  E(RHF) =  -470.732987806     A.U. after   11 cycles
 E2 =    -0.1582763430D+01 EUMP2 =    -0.47231575123668D+03

 The electronic state is 1-A.
 Alpha  occ. eigenvalues --  -11.21592 -11.21586 -11.21576 -11.21574 -11.21387
 Alpha  occ. eigenvalues --  -11.21385 -11.21328 -11.21326 -11.21095 -11.21064
 Alpha  occ. eigenvalues --  -11.21058 -11.20978  -1.08425  -1.08402  -1.03561
 Alpha  occ. eigenvalues --   -1.03475  -0.96045  -0.95898  -0.87054  -0.86922
 Alpha  occ. eigenvalues --   -0.79585  -0.79573  -0.78234  -0.78215  -0.65059
 Alpha  occ. eigenvalues --   -0.65042  -0.61020  -0.60905  -0.59518  -0.59148
 Alpha  occ. eigenvalues --   -0.57680  -0.57471  -0.55290  -0.55239  -0.52790
 Alpha  occ. eigenvalues --   -0.52524  -0.52418  -0.52302  -0.49931  -0.49879
 Alpha  occ. eigenvalues --   -0.47908  -0.47871  -0.46635  -0.46587  -0.45782
 Alpha  occ. eigenvalues --   -0.45756  -0.45696  -0.45682  -0.43797  -0.43714
 Alpha virt. eigenvalues --    0.21780   0.23024   0.23553   0.25114   0.26457
 Alpha virt. eigenvalues --    0.26658   0.27220   0.27375   0.27725   0.28957
 Alpha virt. eigenvalues --    0.30888   0.31428   0.31547   0.31653   0.32163

 Mulliken charges:
               1
     1  C   -0.298196
     2  C   -0.299601
     3  C   -0.475686
     4  H    0.149599
     5  H    0.149486
     6  H    0.151858
     7  H    0.151902
     8  H    0.155175
     9  H    0.155163
    10  H    0.160203
    11  C   -0.298420
    12  C   -0.298883
    13  C   -0.486740
    14  H    0.149324
    15  H    0.149542
    16  H    0.151711
    17  H    0.151639
    18  H    0.154336
    19  H    0.153864
    20  H    0.174389
    21  C   -0.298396
    22  C   -0.299646
    23  C   -0.475706
    24  H    0.150014
    25  H    0.149437
    26  H    0.151918
    27  H    0.151861
    28  H    0.155145
    29  H    0.155228
    30  H    0.160183
    31  C   -0.298083
    32  C   -0.303021
    33  C   -0.480431
    34  H    0.149684
    35  H    0.149447
    36  H    0.156366
    37  H    0.151944
    38  H    0.157055
    39  H    0.155804
    40  H    0.160535
 Sum of Mulliken charges =  -0.00000

 Dipole moment (field-independent basis, Debye):
    X=              0.0247    Y=              0.0164    Z=             -0.0006  Tot=              0.0297
 Quadrupole moment (field-independent basis, Debye-Ang):
   XX=            -86.1393   YY=            -84.9036   ZZ=            -83.8398
   XY=              1.2489   XZ=              0.2660   YZ=             -0.8575

 Normal termination of Gaussian 16 at Wed May  5 16:51:56 2021.
