 Gaussian 16, Revision A.03,
 Gaussian 16:  EM64L-G16RevA.03 25-Dec-2016

 -------------
 #p 6-31g* mp2
 -------------

 ------------------------------------------------------
 Input file generated by CHIRIPA (05-May-2021 14:51:13)
 ------------------------------------------------------
 Symbolic Z-matrix:
 Charge =  0 Multiplicity = 1

                         Standard orientation:
 ---------------------------------------------------------------------
 Center     Atomic      Atomic             Coordinates (Angstroms)
 Number     Number       Type             X           Y           Z
 ---------------------------------------------------------------------
      1          6           0       -3.148251   -0.074370    0.546100
      2          6           0       -1.827862   -0.673088    0.060202
      3          6           0       -0.636787   -0.257041    0.923937
      4          1           0       -3.065295    1.021062    0.555647
      5          1           0       -3.322416   -0.383719    1.585987
      6          1           0       -1.656921   -0.363835   -0.978912
      7          1           0       -1.914035   -1.767216    0.051629
      8          1           0       -0.781040   -0.579575    1.960163
      9          1           0       -0.522465    0.831780    0.923767
     10          1           0        0.296809   -0.696247    0.558757
     11          6           0       -4.348277   -0.481148   -0.307245
     12          6           0       -5.668665    0.117570    0.178654
     13          6           0       -6.859740   -0.298477   -0.685082
     14          1           0       -4.174111   -0.171799   -1.347132
     15          1           0       -4.431232   -1.576580   -0.316791
     16          1           0       -5.582492    1.211698    0.187227
     17          1           0       -5.839606   -0.191683    1.217768
     18          1           0       -6.974062   -1.387298   -0.684911
     19          1           0       -6.715487    0.024057   -1.721308
     20          1           0       -7.793336    0.140729   -0.319902
     21          6           0        4.139883   -0.272968   -0.475470
     22          6           0        4.356169   -1.517334    0.386366
     23          6           0        5.141155   -2.610191   -0.339755
     24          1           0        3.609370   -0.558650   -1.394103
     25          1           0        5.116326    0.122034   -0.788402
     26          1           0        3.379648   -1.909071    0.698724
     27          1           0        4.886058   -1.228624    1.303143
     28          1           0        6.128383   -2.242265   -0.637434
     29          1           0        4.613414   -2.926577   -1.245287
     30          1           0        5.284288   -3.490526    0.294582
     31          6           0        3.356644    0.828486    0.236613
     32          6           0        3.140359    2.072851   -0.625222
     33          6           0        2.355372    3.165709    0.100899
     34          1           0        2.380201    0.433483    0.549546
     35          1           0        3.887157    1.114168    1.155248
     36          1           0        2.610469    1.784142   -1.541998
     37          1           0        4.116878    2.464588   -0.937580
     38          1           0        2.883113    3.482095    1.006432
     39          1           0        1.368144    2.797782    0.398578
     40          1           0        2.212239    4.046045   -0.533437
 ---------------------------------------------------------------------

 SCF Done:  E(RHF) =  -470.733032663     A.U. after   11 cycles
 E2 =    -0.1583097806D+01 EUMP2 =    -0.47231613046927D+03

 The electronic state is 1-A.
 Alpha  occ. eigenvalues --  -11.21682 -11.21631 -11.21581 -11.21545 -11.21455
 Alpha  occ. eigenvalues --  -11.21393 -11.21339 -11.21236 -11.21182 -11.21094
 Alpha  occ. eigenvalues --  -11.21053 -11.21033  -1.08486  -1.08375  -1.03595
 Alpha  occ. eigenvalues --   -1.03487  -0.96050  -0.95935  -0.87073  -0.86950
 Alpha  occ. eigenvalues --   -0.79679  -0.79537  -0.78301  -0.78174  -0.65133
 Alpha  occ. eigenvalues --   -0.65013  -0.61043  -0.60841  -0.59435  -0.59299
 Alpha  occ. eigenvalues --   -0.57698  -0.57513  -0.55346  -0.55219  -0.52804
 Alpha  occ. eigenvalues --   -0.52631  -0.52491  -0.52312  -0.50008  -0.49865
 Alpha  occ. eigenvalues --   -0.47979  -0.47859  -0.46748  -0.46531  -0.45851
 Alpha  occ. eigenvalues --   -0.45775  -0.45713  -0.45621  -0.43775  -0.43717
 Alpha virt. eigenvalues --    0.20830   0.22965   0.23438   0.24729   0.25869
 Alpha virt. eigenvalues --    0.26217   0.26901   0.27224   0.27787   0.29170
 Alpha virt. eigenvalues --    0.30222   0.31637   0.31772   0.31889   0.32476

 Mulliken charges:
               1
     1  C   -0.298809
     2  C   -0.299496
     3  C   -0.482659
     4  H    0.149903
     5  H    0.149772
     6  H    0.152079
     7  H    0.152218
     8  H    0.156370
     9  H    0.157960
    10  H    0.163449
    11  C   -0.298336
    12  C   -0.299696
    13  C   -0.475738
    14  H    0.149615
    15  H    0.149733
    16  H    0.152083
    17  H    0.152013
    18  H    0.155210
    19  H    0.155234
    20  H    0.160387
    21  C   -0.298004
    22  C   -0.300155
    23  C   -0.475634
    24  H    0.148960
    25  H    0.149372
    26  H    0.151539
    27  H    0.152183
    28  H    0.155250
    29  H    0.155044
    30  H    0.160154
    31  C   -0.307537
    32  C   -0.298691
    33  C   -0.478719
    34  H    0.160235
    35  H    0.149153
    36  H    0.151298
    37  H    0.151630
    38  H    0.155271
    39  H    0.157568
    40  H    0.159790
 Sum of Mulliken charges =  -0.00000

 Dipole moment (field-independent basis, Debye):
    X=             -0.0530    Y=             -0.0136    Z=              0.0220  Tot=              0.0590
 Quadrupole moment (field-independent basis, Debye-Ang):
   XX=            -85.3013   YY=            -84.8541   ZZ=            -84.7314
   XY=              0.7385   XZ=             -0.0328   YZ=             -0.8099

 Normal termination of Gaussian 16 at Thu May  6 00:47:36 2021.
