 Gaussian 16, Revision A.03,
 Gaussian 16:  EM64L-G16RevA.03 25-Dec-2016

 -------------
 #p 6-31g* mp2
 -------------

 ------------------------------------------------------
 Input file generated by CHIRIPA (05-May-2021 14:53:17)
 ------------------------------------------------------
 Symbolic Z-matrix:
 Charge =  0 Multiplicity = 1

                         Standard orientation:
 ---------------------------------------------------------------------
 Center     Atomic      Atomic             Coordinates (Angstroms)
 Number     Number       Type             X           Y           Z
 ---------------------------------------------------------------------
      1          6           0        2.867711    0.614717    0.200364
      2          6           0        3.254352   -0.567792   -0.688550
      3          6           0        4.344428   -1.442179   -0.068085
      4          1           0        3.760294    1.223994    0.397901
      5          1           0        2.525828    0.236397    1.173701
      6          1           0        3.594095   -0.187416   -1.660406
      7          1           0        2.360707   -1.174219   -0.884151
      8          1           0        4.011643   -1.849282    0.892187
      9          1           0        5.252040   -0.856872    0.111521
     10          1           0        4.605498   -2.281479   -0.720219
     11          6           0        1.779055    1.498168   -0.406323
     12          6           0        1.392413    2.680676    0.482591
     13          6           0        0.302338    3.555064   -0.137873
     14          1           0        2.120938    1.876488   -1.379660
     15          1           0        0.886471    0.888890   -0.603859
     16          1           0        2.286059    3.287104    0.678192
     17          1           0        1.052670    2.300301    1.454448
     18          1           0       -0.605274    2.969757   -0.317479
     19          1           0        0.635122    3.962167   -1.098145
     20          1           0        0.041267    4.394363    0.514260
     21          6           0        0.198084   -2.293341    0.477733
     22          6           0       -0.342626   -2.179524   -0.807257
     23          6           0       -1.457947   -1.369038   -1.039025
     24          6           0       -2.009774   -0.683425    0.042044
     25          6           0       -1.493976   -0.776297    1.333795
     26          6           0       -0.378302   -1.592600    1.542281
     27          1           0        1.064630   -2.925205    0.648733
     28          1           0        0.102927   -2.722569   -1.635889
     29          1           0       -1.896776   -1.262813   -2.023690
     30          1           0       -1.959996   -0.222730    2.139901
     31          1           0        0.039500   -1.679092    2.541283
     32          7           0       -3.190703    0.177679   -0.190994
     33          8           0       -3.658398    0.771376    0.778244
     34          8           0       -3.626258    0.242611   -1.338475
 ---------------------------------------------------------------------

 SCF Done:  E(RHF) =  -669.534420697     A.U. after   15 cycles
 E2 =    -0.2096151946D+01 EUMP2 =    -0.67163057264297D+03

 The electronic state is 1-A.
 Alpha  occ. eigenvalues --  -20.60902 -20.60897 -15.85961 -11.31377 -11.27961
 Alpha  occ. eigenvalues --  -11.27944 -11.27678 -11.26960 -11.26939 -11.22049
 Alpha  occ. eigenvalues --  -11.21800 -11.21715 -11.21624 -11.21436 -11.20904
 Alpha  occ. eigenvalues --   -1.59979  -1.39529  -1.19568  -1.08979  -1.08651
 Alpha  occ. eigenvalues --   -1.04965  -1.03801  -0.96239  -0.95769  -0.87252
 Alpha  occ. eigenvalues --   -0.86361  -0.82590  -0.79885  -0.78464  -0.77630
 Alpha  occ. eigenvalues --   -0.72172  -0.71309  -0.70670  -0.65412  -0.65200
 Alpha  occ. eigenvalues --   -0.64925  -0.62303  -0.61220  -0.59650  -0.57837
 Alpha  occ. eigenvalues --   -0.55647  -0.55353  -0.53328  -0.53042  -0.52911
 Alpha  occ. eigenvalues --   -0.52653  -0.50203  -0.48937  -0.48924  -0.48199
 Alpha  occ. eigenvalues --   -0.46958  -0.45987  -0.45854  -0.44920  -0.44018
 Alpha  occ. eigenvalues --   -0.37435  -0.36524
 Alpha virt. eigenvalues --    0.04874   0.10920   0.16301   0.20082   0.22952
 Alpha virt. eigenvalues --    0.23876   0.26021   0.26428   0.27212   0.28037
 Alpha virt. eigenvalues --    0.28800   0.30202   0.31277   0.31651   0.32228

 Mulliken charges:
               1
     1  C   -0.295329
     2  C   -0.305928
     3  C   -0.476413
     4  H    0.150255
     5  H    0.144110
     6  H    0.153658
     7  H    0.151325
     8  H    0.147455
     9  H    0.159884
    10  H    0.158490
    11  C   -0.302999
    12  C   -0.299425
    13  C   -0.475342
    14  H    0.149069
    15  H    0.156148
    16  H    0.150922
    17  H    0.148689
    18  H    0.157970
    19  H    0.155129
    20  H    0.162077
    21  C   -0.169667
    22  C   -0.217972
    23  C   -0.172545
    24  C    0.158633
    25  C   -0.171472
    26  C   -0.218646
    27  H    0.229855
    28  H    0.225555
    29  H    0.276875
    30  H    0.276713
    31  H    0.224531
    32  N    0.487772
    33  O   -0.459762
    34  O   -0.459614
 Sum of Mulliken charges =  -0.00000

 Dipole moment (field-independent basis, Debye):
    X=              3.9905    Y=             -3.0259    Z=              0.7926  Tot=              5.0704
 Quadrupole moment (field-independent basis, Debye-Ang):
   XX=           -112.6802   YY=            -91.0361   ZZ=            -89.9184
   XY=              4.3494   XZ=             -2.1943   YZ=              0.6010

 Normal termination of Gaussian 16 at Wed May  5 15:45:11 2021.
