 Gaussian 16, Revision A.03,
 Gaussian 16:  EM64L-G16RevA.03 25-Dec-2016

 -------------
 #p 6-31g* mp2
 -------------

 ------------------------------------------------------
 Input file generated by CHIRIPA (05-May-2021 14:57:23)
 ------------------------------------------------------
 Symbolic Z-matrix:
 Charge =  0 Multiplicity = 1

                         Standard orientation:
 ---------------------------------------------------------------------
 Center     Atomic      Atomic             Coordinates (Angstroms)
 Number     Number       Type             X           Y           Z
 ---------------------------------------------------------------------
      1          6           0        4.636579    1.730856   -0.104856
      2          6           0        4.347967    1.172378    1.144674
      3          6           0        3.472856    0.087428    1.252430
      4          6           0        2.901562   -0.416239    0.084855
      5          6           0        3.169246    0.118336   -1.174457
      6          6           0        4.047336    1.202983   -1.258400
      7          1           0        5.317543    2.573554   -0.179315
      8          1           0        4.804121    1.580272    2.042222
      9          1           0        3.231893   -0.364207    2.207093
     10          1           0        2.699147   -0.309973   -2.051370
     11          1           0        4.269638    1.634683   -2.230132
     12          7           0        1.973545   -1.564667    0.186326
     13          8           0        1.483220   -1.990077   -0.857343
     14          8           0        1.754061   -2.017649    1.307607
     15          6           0       -3.319034    2.727102    0.144611
     16          6           0       -2.130583    2.189388   -0.360333
     17          6           0       -1.972965    0.805644   -0.482629
     18          6           0       -3.028937   -0.014740   -0.088698
     19          6           0       -4.225188    0.490710    0.418051
     20          6           0       -4.360708    1.877545    0.531509
     21          1           0       -3.432892    3.803228    0.236180
     22          1           0       -1.319929    2.846757   -0.661585
     23          1           0       -1.063641    0.362640   -0.870309
     24          1           0       -5.015621   -0.189975    0.710114
     25          1           0       -5.284800    2.292339    0.923993
     26          7           0       -2.873772   -1.481284   -0.213489
     27          8           0       -3.819001   -2.182610    0.140521
     28          8           0       -1.809863   -1.901667   -0.662947
 ---------------------------------------------------------------------

 SCF Done:  E(RHF) =  -868.335144014     A.U. after   16 cycles
 E2 =    -0.2601260629D+01 EUMP2 =    -0.87093640464304D+03

 The electronic state is 1-A.
 Alpha  occ. eigenvalues --  -20.60419 -20.60342 -20.59817 -20.59704 -15.85432
 Alpha  occ. eigenvalues --  -15.84814 -11.31179 -11.30597 -11.27785 -11.27761
 Alpha  occ. eigenvalues --  -11.27569 -11.27219 -11.27211 -11.27059 -11.26873
 Alpha  occ. eigenvalues --  -11.26849 -11.26351 -11.26323  -1.59437  -1.58844
 Alpha  occ. eigenvalues --   -1.38985  -1.38378  -1.19379  -1.18815  -1.08699
 Alpha  occ. eigenvalues --   -1.08139  -1.04826  -1.04282  -0.95467  -0.94898
 Alpha  occ. eigenvalues --   -0.86204  -0.85660  -0.82293  -0.81721  -0.77285
 Alpha  occ. eigenvalues --   -0.76699  -0.71645  -0.71065  -0.70718  -0.70463
 Alpha  occ. eigenvalues --   -0.70180  -0.69924  -0.65010  -0.64817  -0.64453
 Alpha  occ. eigenvalues --   -0.64298  -0.62161  -0.61623  -0.55299  -0.54782
 Alpha  occ. eigenvalues --   -0.53152  -0.52910  -0.52588  -0.52385  -0.48409
 Alpha  occ. eigenvalues --   -0.48373  -0.47828  -0.47757  -0.44283  -0.43679
 Alpha  occ. eigenvalues --   -0.37383  -0.36822  -0.36457  -0.35905
 Alpha virt. eigenvalues --    0.05237   0.05841   0.11171   0.11743   0.16654
 Alpha virt. eigenvalues --    0.17256   0.21315   0.21795   0.27175   0.27562
 Alpha virt. eigenvalues --    0.28190   0.28703   0.30674   0.31372   0.32331

 Mulliken charges:
               1
     1  C   -0.172504
     2  C   -0.218663
     3  C   -0.171808
     4  C    0.157113
     5  C   -0.176259
     6  C   -0.219208
     7  H    0.224727
     8  H    0.223215
     9  H    0.276765
    10  H    0.276506
    11  H    0.222618
    12  N    0.486032
    13  O   -0.448259
    14  O   -0.458006
    15  C   -0.172044
    16  C   -0.218598
    17  C   -0.172780
    18  C    0.159879
    19  C   -0.171242
    20  C   -0.218570
    21  H    0.222312
    22  H    0.218851
    23  H    0.276803
    24  H    0.275328
    25  H    0.221393
    26  N    0.486892
    27  O   -0.465711
    28  O   -0.444781
 Sum of Mulliken charges =  -0.00000

 Dipole moment (field-independent basis, Debye):
    X=              2.8206    Y=              8.8526    Z=              0.0453  Tot=              9.2912
 Quadrupole moment (field-independent basis, Debye-Ang):
   XX=            -80.1028   YY=           -109.6749   ZZ=           -100.1015
   XY=             -4.4668   XZ=             -3.2263   YZ=             -0.1243

 Normal termination of Gaussian 16 at Thu May  6 03:26:00 2021.
