 Gaussian 16, Revision A.03,
 Gaussian 16:  EM64L-G16RevA.03 25-Dec-2016

 -------------
 #p 6-31g* mp2
 -------------

 ------------------------------------------------------
 Input file generated by CHIRIPA (05-May-2021 14:51:10)
 ------------------------------------------------------
 Symbolic Z-matrix:
 Charge =  0 Multiplicity = 1

                         Standard orientation:
 ---------------------------------------------------------------------
 Center     Atomic      Atomic             Coordinates (Angstroms)
 Number     Number       Type             X           Y           Z
 ---------------------------------------------------------------------
      1          6           0       -2.877066   -0.853372    0.331430
      2          6           0       -3.421944    0.527549   -0.034834
      3          6           0       -4.663491    0.906513    0.773089
      4          1           0       -3.662909   -1.604515    0.172749
      5          1           0       -2.637936   -0.872918    1.403731
      6          1           0       -3.658677    0.544920   -1.106409
      7          1           0       -2.634652    1.275467    0.124555
      8          1           0       -4.437626    0.917049    1.844292
      9          1           0       -5.467470    0.182351    0.606334
     10          1           0       -5.036301    1.897301    0.495217
     11          6           0       -1.635913   -1.246422   -0.467807
     12          6           0       -1.091034   -2.627343   -0.101542
     13          6           0        0.150513   -3.006307   -0.909466
     14          1           0       -1.875042   -1.226876   -1.540108
     15          1           0       -0.850069   -0.495279   -0.309125
     16          1           0       -1.878327   -3.375261   -0.260932
     17          1           0       -0.854301   -2.644713    0.970032
     18          1           0        0.954492   -2.282145   -0.742710
     19          1           0       -0.075352   -3.016843   -1.980668
     20          1           0        0.523322   -3.997095   -0.631593
     21          6           0        2.018875    1.620593   -0.380452
     22          6           0        0.797030    2.356516    0.170451
     23          6           0        0.333566    3.495508   -0.738226
     24          1           0        2.839328    2.337928   -0.519130
     25          1           0        1.780163    1.222383   -1.376364
     26          1           0        1.037526    2.752031    1.165612
     27          1           0       -0.020549    1.637310    0.308014
     28          1           0        0.066789    3.113667   -1.728998
     29          1           0        1.130875    4.234722   -0.866527
     30          1           0       -0.540960    4.007962   -0.325365
     31          6           0        2.494103    0.479202    0.516829
     32          6           0        3.715948   -0.256722   -0.034074
     33          6           0        4.179412   -1.395714    0.874602
     34          1           0        2.732816    0.877410    1.512741
     35          1           0        1.673650   -0.238134    0.655507
     36          1           0        4.533527    0.462483   -0.171638
     37          1           0        3.475453   -0.652237   -1.029235
     38          1           0        3.382103   -2.134928    1.002903
     39          1           0        4.446189   -1.013874    1.865374
     40          1           0        5.053938   -1.908168    0.461740
 ---------------------------------------------------------------------

 SCF Done:  E(RHF) =  -470.732686742     A.U. after   11 cycles
 E2 =    -0.1585273511D+01 EUMP2 =    -0.47231796025290D+03

 The electronic state is 1-A.
 Alpha  occ. eigenvalues --  -11.21664 -11.21630 -11.21629 -11.21623 -11.21449
 Alpha  occ. eigenvalues --  -11.21447 -11.21388 -11.21388 -11.21137 -11.21093
 Alpha  occ. eigenvalues --  -11.21086 -11.21076  -1.08534  -1.08429  -1.03598
 Alpha  occ. eigenvalues --   -1.03542  -0.96029  -0.96007  -0.87054  -0.87014
 Alpha  occ. eigenvalues --   -0.79653  -0.79622  -0.78430  -0.78173  -0.65510
 Alpha  occ. eigenvalues --   -0.64764  -0.61177  -0.60797  -0.59417  -0.59353
 Alpha  occ. eigenvalues --   -0.57634  -0.57617  -0.55331  -0.55280  -0.52722
 Alpha  occ. eigenvalues --   -0.52696  -0.52464  -0.52419  -0.50031  -0.49894
 Alpha  occ. eigenvalues --   -0.48017  -0.47901  -0.46825  -0.46731  -0.46256
 Alpha  occ. eigenvalues --   -0.45809  -0.45765  -0.45041  -0.43827  -0.43815
 Alpha virt. eigenvalues --    0.19147   0.21476   0.23635   0.24759   0.25919
 Alpha virt. eigenvalues --    0.26618   0.26994   0.27302   0.28252   0.30145
 Alpha virt. eigenvalues --    0.31056   0.31547   0.31688   0.31724   0.32043

 Mulliken charges:
               1
     1  C   -0.297566
     2  C   -0.304887
     3  C   -0.475571
     4  H    0.149984
     5  H    0.149508
     6  H    0.152009
     7  H    0.156739
     8  H    0.155309
     9  H    0.155254
    10  H    0.160392
    11  C   -0.308849
    12  C   -0.298917
    13  C   -0.482319
    14  H    0.149650
    15  H    0.158447
    16  H    0.152570
    17  H    0.151900
    18  H    0.160522
    19  H    0.155526
    20  H    0.160846
    21  C   -0.298070
    22  C   -0.309700
    23  C   -0.475376
    24  H    0.150251
    25  H    0.150269
    26  H    0.152119
    27  H    0.159692
    28  H    0.155904
    29  H    0.155350
    30  H    0.160250
    31  C   -0.304332
    32  C   -0.300545
    33  C   -0.477149
    34  H    0.150060
    35  H    0.153055
    36  H    0.152430
    37  H    0.152950
    38  H    0.156640
    39  H    0.155064
    40  H    0.160588
 Sum of Mulliken charges =  -0.00000

 Dipole moment (field-independent basis, Debye):
    X=             -0.0004    Y=              0.0052    Z=             -0.0092  Tot=              0.0105
 Quadrupole moment (field-independent basis, Debye-Ang):
   XX=            -85.0027   YY=            -85.0663   ZZ=            -84.5662
   XY=              1.4182   XZ=              0.9269   YZ=              0.8735

 Normal termination of Gaussian 16 at Thu May  6 05:25:44 2021.
