 Gaussian 16, Revision A.03,
 Gaussian 16:  EM64L-G16RevA.03 25-Dec-2016

 -------------
 #p 6-31g* mp2
 -------------

 ------------------------------------------------------
 Input file generated by CHIRIPA (05-May-2021 14:57:27)
 ------------------------------------------------------
 Symbolic Z-matrix:
 Charge =  0 Multiplicity = 1

                         Standard orientation:
 ---------------------------------------------------------------------
 Center     Atomic      Atomic             Coordinates (Angstroms)
 Number     Number       Type             X           Y           Z
 ---------------------------------------------------------------------
      1          6           0        2.001891   -1.212687    1.060894
      2          6           0        1.928994   -0.049331    0.287712
      3          6           0        3.086658    0.516181   -0.255021
      4          6           0        4.306067   -0.110743   -0.003430
      5          6           0        4.411278   -1.270519    0.762821
      6          6           0        3.240617   -1.818500    1.295567
      7          1           0        1.097542   -1.645181    1.478622
      8          1           0        0.968349    0.423310    0.103817
      9          1           0        3.058972    1.416198   -0.857200
     10          1           0        5.383284   -1.718926    0.928809
     11          1           0        3.300243   -2.722042    1.895652
     12          7           0        5.538513    0.478660   -0.572710
     13          8           0        6.600667   -0.092863   -0.336429
     14          8           0        5.419015    1.500996   -1.244414
     15          6           0       -5.493797   -1.792290   -0.746717
     16          6           0       -6.065987   -0.755834   -0.001814
     17          6           0       -5.304830    0.357203    0.367421
     18          6           0       -3.968482    0.401253   -0.026943
     19          6           0       -3.369709   -0.615398   -0.769359
     20          6           0       -4.149854   -1.718893   -1.127441
     21          1           0       -6.092457   -2.653218   -1.029216
     22          1           0       -7.109465   -0.810146    0.295252
     23          1           0       -5.722490    1.173705    0.943879
     24          1           0       -2.326930   -0.532921   -1.050832
     25          1           0       -3.702830   -2.522339   -1.705966
     26          7           0       -3.152629    1.574524    0.358046
     27          8           0       -1.977490    1.589408   -0.001766
     28          8           0       -3.703750    2.457036    1.012321
 ---------------------------------------------------------------------

 SCF Done:  E(RHF) =  -868.339270646     A.U. after   16 cycles
 E2 =    -0.2598620393D+01 EUMP2 =    -0.87093789103897D+03

 The electronic state is 1-A.
 Alpha  occ. eigenvalues --  -20.61736 -20.61671 -20.60361 -20.60349 -15.86749
 Alpha  occ. eigenvalues --  -15.85405 -11.31957 -11.30705 -11.28543 -11.28468
 Alpha  occ. eigenvalues --  -11.28188 -11.27487 -11.27446 -11.27288 -11.27177
 Alpha  occ. eigenvalues --  -11.26990 -11.26329 -11.26091  -1.60763  -1.59434
 Alpha  occ. eigenvalues --   -1.40327  -1.38989  -1.20107  -1.18858  -1.09523
 Alpha  occ. eigenvalues --   -1.08273  -1.05488  -1.04229  -0.96388  -0.95123
 Alpha  occ. eigenvalues --   -0.86891  -0.85633  -0.83230  -0.81939  -0.78304
 Alpha  occ. eigenvalues --   -0.76989  -0.72974  -0.72073  -0.71625  -0.71208
 Alpha  occ. eigenvalues --   -0.70756  -0.69989  -0.65763  -0.65481  -0.64503
 Alpha  occ. eigenvalues --   -0.64194  -0.62842  -0.61553  -0.55976  -0.54766
 Alpha  occ. eigenvalues --   -0.53823  -0.53574  -0.52594  -0.52289  -0.49735
 Alpha  occ. eigenvalues --   -0.49691  -0.48385  -0.48376  -0.45761  -0.44408
 Alpha  occ. eigenvalues --   -0.38068  -0.37086  -0.36864  -0.35834
 Alpha virt. eigenvalues --    0.04211   0.05508   0.10569   0.11805   0.15730
 Alpha virt. eigenvalues --    0.17020   0.20409   0.21966   0.26045   0.27023
 Alpha virt. eigenvalues --    0.28498   0.28771   0.30234   0.31184   0.32223

 Mulliken charges:
               1
     1  C   -0.173234
     2  C   -0.228443
     3  C   -0.172504
     4  C    0.158582
     5  C   -0.172584
     6  C   -0.218499
     7  H    0.222539
     8  H    0.244505
     9  H    0.277706
    10  H    0.273614
    11  H    0.220461
    12  N    0.487991
    13  O   -0.462389
    14  O   -0.460035
    15  C   -0.170206
    16  C   -0.218248
    17  C   -0.170466
    18  C    0.158535
    19  C   -0.172159
    20  C   -0.218468
    21  H    0.228126
    22  H    0.226051
    23  H    0.277369
    24  H    0.271004
    25  H    0.225076
    26  N    0.492287
    27  O   -0.472347
    28  O   -0.454263
 Sum of Mulliken charges =  -0.00000

 Dipole moment (field-independent basis, Debye):
    X=             -7.6648    Y=             -6.1245    Z=              0.6380  Tot=              9.8319
 Quadrupole moment (field-independent basis, Debye-Ang):
   XX=           -114.7701   YY=           -105.0512   ZZ=           -104.1856
   XY=              3.2607   XZ=             13.2181   YZ=             -1.1154

 Normal termination of Gaussian 16 at Wed May  5 18:03:51 2021.
