 Gaussian 16, Revision A.03,
 Gaussian 16:  EM64L-G16RevA.03 25-Dec-2016

 -------------
 #p 6-31g* mp2
 -------------

 ------------------------------------------------------
 Input file generated by CHIRIPA (05-May-2021 14:55:25)
 ------------------------------------------------------
 Symbolic Z-matrix:
 Charge =  0 Multiplicity = 1

                         Standard orientation:
 ---------------------------------------------------------------------
 Center     Atomic      Atomic             Coordinates (Angstroms)
 Number     Number       Type             X           Y           Z
 ---------------------------------------------------------------------
      1          6           0       -2.091203    2.123936    1.085083
      2          6           0       -1.753300    1.847361   -0.243770
      3          6           0       -2.119663    0.632920   -0.831528
      4          6           0       -2.826607   -0.286288   -0.057850
      5          6           0       -3.177941   -0.040017    1.268500
      6          6           0       -2.801193    1.181026    1.835653
      7          1           0       -1.802570    3.069907    1.533664
      8          1           0       -1.201953    2.577765   -0.829065
      9          1           0       -1.871017    0.392963   -1.858180
     10          1           0       -3.727978   -0.787842    1.826744
     11          1           0       -3.064971    1.393109    2.867878
     12          7           0       -3.219956   -1.575457   -0.669176
     13          8           0       -3.842413   -2.368630    0.033717
     14          8           0       -2.898357   -1.768323   -1.839652
     15          6           0        3.109329    0.708105    0.105218
     16          6           0        3.057219    1.724539   -1.035892
     17          6           0        2.201671    2.946550   -0.700449
     18          1           0        2.087349    0.386455    0.348209
     19          1           0        3.505206    1.198048    1.005568
     20          1           0        2.662855    1.232466   -1.934200
     21          1           0        4.079456    2.043663   -1.276323
     22          1           0        2.596323    3.463036    0.180513
     23          1           0        1.171673    2.647230   -0.481102
     24          1           0        2.178251    3.660166   -1.529945
     25          6           0        3.960823   -0.519133   -0.215052
     26          6           0        4.012933   -1.535567    0.926057
     27          6           0        4.868480   -2.757578    0.590614
     28          1           0        3.564945   -1.009076   -1.115403
     29          1           0        4.982803   -0.197483   -0.458043
     30          1           0        2.990695   -1.854691    1.166489
     31          1           0        4.407297   -1.043495    1.824366
     32          1           0        5.898479   -2.458259    0.371267
     33          1           0        4.473828   -3.274064   -0.290347
     34          1           0        4.891901   -3.471194    1.420110
 ---------------------------------------------------------------------

 SCF Done:  E(RHF) =  -669.535549258     A.U. after   15 cycles
 E2 =    -0.2091437865D+01 EUMP2 =    -0.67162698712333D+03

 The electronic state is 1-A.
 Alpha  occ. eigenvalues --  -20.60810 -20.60805 -15.85865 -11.31241 -11.27819
 Alpha  occ. eigenvalues --  -11.27814 -11.27553 -11.26818 -11.26802 -11.22090
 Alpha  occ. eigenvalues --  -11.21809 -11.21717 -11.21706 -11.21555 -11.21105
 Alpha  occ. eigenvalues --   -1.59886  -1.39439  -1.19418  -1.08809  -1.08721
 Alpha  occ. eigenvalues --   -1.04824  -1.03857  -0.96324  -0.95639  -0.87352
 Alpha  occ. eigenvalues --   -0.86215  -0.82471  -0.79933  -0.78505  -0.77519
 Alpha  occ. eigenvalues --   -0.72082  -0.71210  -0.70514  -0.65377  -0.65067
 Alpha  occ. eigenvalues --   -0.64827  -0.62207  -0.61229  -0.59702  -0.57914
 Alpha  occ. eigenvalues --   -0.55656  -0.55289  -0.53170  -0.53057  -0.52949
 Alpha  occ. eigenvalues --   -0.52657  -0.50250  -0.48841  -0.48837  -0.48238
 Alpha  occ. eigenvalues --   -0.46947  -0.46055  -0.45953  -0.44842  -0.44094
 Alpha  occ. eigenvalues --   -0.37384  -0.36410
 Alpha virt. eigenvalues --    0.05018   0.11088   0.16461   0.20756   0.22737
 Alpha virt. eigenvalues --    0.24061   0.26022   0.26645   0.27356   0.28155
 Alpha virt. eigenvalues --    0.28636   0.30577   0.31236   0.31726   0.31827

 Mulliken charges:
               1
     1  C   -0.171423
     2  C   -0.219313
     3  C   -0.172626
     4  C    0.158308
     5  C   -0.170546
     6  C   -0.218585
     7  H    0.226789
     8  H    0.227220
     9  H    0.275864
    10  H    0.275865
    11  H    0.223789
    12  N    0.488088
    13  O   -0.460246
    14  O   -0.460415
    15  C   -0.299535
    16  C   -0.298848
    17  C   -0.482029
    18  H    0.151524
    19  H    0.148739
    20  H    0.152719
    21  H    0.154296
    22  H    0.156594
    23  H    0.149740
    24  H    0.160056
    25  C   -0.298889
    26  C   -0.300087
    27  C   -0.476072
    28  H    0.151773
    29  H    0.149720
    30  H    0.153603
    31  H    0.150882
    32  H    0.154738
    33  H    0.157237
    34  H    0.161068
 Sum of Mulliken charges =  -0.00000

 Dipole moment (field-independent basis, Debye):
    X=              1.4199    Y=              4.4756    Z=              2.1800  Tot=              5.1768
 Quadrupole moment (field-independent basis, Debye-Ang):
   XX=           -101.7309   YY=            -98.3695   ZZ=            -91.3412
   XY=            -11.8775   XZ=             -8.1196   YZ=             -2.0264

 Normal termination of Gaussian 16 at Thu May  6 17:46:01 2021.
