 Gaussian 16, Revision A.03,
 Gaussian 16:  EM64L-G16RevA.03 25-Dec-2016

 -------------
 #p 6-31g* mp2
 -------------

 ------------------------------------------------------
 Input file generated by CHIRIPA (05-May-2021 14:53:17)
 ------------------------------------------------------
 Symbolic Z-matrix:
 Charge =  0 Multiplicity = 1

                         Standard orientation:
 ---------------------------------------------------------------------
 Center     Atomic      Atomic             Coordinates (Angstroms)
 Number     Number       Type             X           Y           Z
 ---------------------------------------------------------------------
      1          6           0        3.908584    0.151537    0.583006
      2          6           0        3.714228    1.571733    1.115222
      3          6           0        2.363377    1.764861    1.804931
      4          1           0        3.098788   -0.083299   -0.121287
      5          1           0        3.815512   -0.560254    1.414924
      6          1           0        3.809012    2.280731    0.282784
      7          1           0        4.524687    1.803284    1.818184
      8          1           0        2.262731    1.080426    2.653471
      9          1           0        1.542989    1.560586    1.109347
     10          1           0        2.245474    2.787092    2.177760
     11          6           0        5.254345   -0.057148   -0.109168
     12          6           0        5.448701   -1.477344   -0.641384
     13          6           0        6.799552   -1.670472   -1.331092
     14          1           0        5.347416    0.654642   -0.941086
     15          1           0        6.064141    0.177688    0.595125
     16          1           0        4.638241   -1.708895   -1.344346
     17          1           0        5.353916   -2.186342    0.191054
     18          1           0        7.619939   -1.466197   -0.635509
     19          1           0        6.900198   -0.986037   -2.179632
     20          1           0        6.917455   -2.692703   -1.703922
     21          6           0       -2.134012    1.734698   -1.252191
     22          6           0       -3.431482    1.511593   -1.724754
     23          6           0       -4.241161    0.532653   -1.141106
     24          6           0       -3.718991   -0.208139   -0.081930
     25          6           0       -2.430394   -0.009461    0.411360
     26          6           0       -1.638482    0.974798   -0.187520
     27          1           0       -1.511934    2.497228   -1.711499
     28          1           0       -3.818949    2.100231   -2.551445
     29          1           0       -5.249242    0.339103   -1.487127
     30          1           0       -2.071886   -0.612143    1.236988
     31          1           0       -0.631229    1.145882    0.181557
     32          7           0       -4.566757   -1.247315    0.544014
     33          8           0       -4.083307   -1.886531    1.475848
     34          8           0       -5.698635   -1.402928    0.090941
 ---------------------------------------------------------------------

 SCF Done:  E(RHF) =  -669.535491073     A.U. after   15 cycles
 E2 =    -0.2090785573D+01 EUMP2 =    -0.67162627664588D+03

 The electronic state is 1-A.
 Alpha  occ. eigenvalues --  -20.60731 -20.60726 -15.85784 -11.31147 -11.27719
 Alpha  occ. eigenvalues --  -11.27707 -11.27463 -11.26738 -11.26709 -11.22358
 Alpha  occ. eigenvalues --  -11.22084 -11.22026 -11.21995 -11.21866 -11.21394
 Alpha  occ. eigenvalues --   -1.59807  -1.39360  -1.19321  -1.09020  -1.08718
 Alpha  occ. eigenvalues --   -1.04724  -1.04137  -0.96602  -0.95552  -0.87623
 Alpha  occ. eigenvalues --   -0.86124  -0.82385  -0.80206  -0.78804  -0.77432
 Alpha  occ. eigenvalues --   -0.72003  -0.71130  -0.70432  -0.65662  -0.64973
 Alpha  occ. eigenvalues --   -0.64746  -0.62114  -0.61509  -0.59971  -0.58194
 Alpha  occ. eigenvalues --   -0.55921  -0.55224  -0.53296  -0.53114  -0.53054
 Alpha  occ. eigenvalues --   -0.52735  -0.50540  -0.48768  -0.48758  -0.48507
 Alpha  occ. eigenvalues --   -0.47231  -0.46353  -0.46257  -0.44766  -0.44374
 Alpha  occ. eigenvalues --   -0.37306  -0.36326
 Alpha virt. eigenvalues --    0.05104   0.11325   0.16596   0.19646   0.22510
 Alpha virt. eigenvalues --    0.23681   0.25110   0.26391   0.27178   0.28339
 Alpha virt. eigenvalues --    0.28572   0.29947   0.31110   0.31482   0.32121

 Mulliken charges:
               1
     1  C   -0.298603
     2  C   -0.299483
     3  C   -0.481211
     4  H    0.146537
     5  H    0.151899
     6  H    0.151707
     7  H    0.155963
     8  H    0.160140
     9  H    0.145940
    10  H    0.164025
    11  C   -0.298645
    12  C   -0.300167
    13  C   -0.476039
    14  H    0.149354
    15  H    0.151220
    16  H    0.152054
    17  H    0.153384
    18  H    0.155914
    19  H    0.155108
    20  H    0.161856
    21  C   -0.173785
    22  C   -0.218531
    23  C   -0.171242
    24  C    0.158888
    25  C   -0.174161
    26  C   -0.227123
    27  H    0.225782
    28  H    0.223206
    29  H    0.275445
    30  H    0.276397
    31  H    0.237138
    32  N    0.488087
    33  O   -0.460361
    34  O   -0.460696
 Sum of Mulliken charges =  -0.00000

 Dipole moment (field-independent basis, Debye):
    X=              3.1896    Y=              3.6524    Z=             -2.1608  Tot=              5.3088
 Quadrupole moment (field-independent basis, Debye-Ang):
   XX=           -114.4929   YY=            -96.7196   ZZ=            -92.1585
   XY=            -15.1293   XZ=             11.8127   YZ=             -1.0663

 Normal termination of Gaussian 16 at Wed May  5 23:37:49 2021.
