 Gaussian 16, Revision A.03,
 Gaussian 16:  EM64L-G16RevA.03 25-Dec-2016

 -------------
 #p 6-31g* mp2
 -------------

 ------------------------------------------------------
 Input file generated by CHIRIPA (05-May-2021 14:51:07)
 ------------------------------------------------------
 Symbolic Z-matrix:
 Charge =  0 Multiplicity = 1

                         Standard orientation:
 ---------------------------------------------------------------------
 Center     Atomic      Atomic             Coordinates (Angstroms)
 Number     Number       Type             X           Y           Z
 ---------------------------------------------------------------------
      1          6           0        3.568856   -0.335170    0.070577
      2          6           0        3.968724   -1.677478   -0.542855
      3          6           0        4.758524   -2.558254    0.425775
      4          1           0        4.473665    0.195806    0.396662
      5          1           0        2.970223   -0.516583    0.973972
      6          1           0        4.565260   -1.493579   -1.445597
      7          1           0        3.062872   -2.205236   -0.867692
      8          1           0        4.167431   -2.770965    1.322416
      9          1           0        5.678356   -2.055265    0.741228
     10          1           0        5.034130   -3.512829   -0.033231
     11          6           0        2.778685    0.556504   -0.885600
     12          6           0        2.378817    1.898813   -0.272167
     13          6           0        1.589017    2.779589   -1.240798
     14          1           0        3.377318    0.737918   -1.788995
     15          1           0        1.873876    0.025529   -1.211685
     16          1           0        3.284669    2.426571    0.052670
     17          1           0        1.782281    1.714914    0.630574
     18          1           0        0.669185    2.276599   -1.556251
     19          1           0        2.180110    2.992299   -2.137439
     20          1           0        1.313411    3.734164   -0.781792
     21          6           0       -2.805388   -0.057051    1.074483
     22          6           0       -1.543008    0.802720    1.002548
     23          6           0       -0.817050    0.900431    2.344648
     24          1           0       -3.483880    0.361583    1.830354
     25          1           0       -2.535316   -1.064383    1.420514
     26          1           0       -1.815184    1.807731    0.655432
     27          1           0       -0.867525    0.382102    0.246625
     28          1           0       -0.517322   -0.093001    2.693728
     29          1           0       -1.470366    1.340728    3.104857
     30          1           0        0.082385    1.519598    2.270424
     31          6           0       -3.542153   -0.164284   -0.259461
     32          6           0       -4.804534   -1.024055   -0.187525
     33          6           0       -5.530491   -1.121766   -1.529625
     34          1           0       -3.812225    0.843048   -0.605490
     35          1           0       -2.863661   -0.582918   -1.015331
     36          1           0       -5.480016   -0.603436    0.568398
     37          1           0       -4.532357   -2.029065    0.159590
     38          1           0       -4.877175   -1.562063   -2.289835
     39          1           0       -5.830218   -0.128334   -1.878705
     40          1           0       -6.429926   -1.740933   -1.455400
 ---------------------------------------------------------------------

 SCF Done:  E(RHF) =  -470.733194786     A.U. after   11 cycles
 E2 =    -0.1583422707D+01 EUMP2 =    -0.47231661749295D+03

 The electronic state is 1-A.
 Alpha  occ. eigenvalues --  -11.21670 -11.21634 -11.21605 -11.21549 -11.21455
 Alpha  occ. eigenvalues --  -11.21398 -11.21395 -11.21339 -11.21135 -11.21095
 Alpha  occ. eigenvalues --  -11.21074 -11.21024  -1.08489  -1.08412  -1.03604
 Alpha  occ. eigenvalues --   -1.03491  -0.96038  -0.95956  -0.87056  -0.86971
 Alpha  occ. eigenvalues --   -0.79659  -0.79565  -0.78293  -0.78235  -0.65182
 Alpha  occ. eigenvalues --   -0.65003  -0.61082  -0.60881  -0.59435  -0.59264
 Alpha  occ. eigenvalues --   -0.57676  -0.57526  -0.55314  -0.55238  -0.52757
 Alpha  occ. eigenvalues --   -0.52646  -0.52473  -0.52375  -0.49970  -0.49902
 Alpha  occ. eigenvalues --   -0.47998  -0.47879  -0.46678  -0.46581  -0.45883
 Alpha  occ. eigenvalues --   -0.45779  -0.45715  -0.45644  -0.43821  -0.43762
 Alpha virt. eigenvalues --    0.19941   0.23189   0.23680   0.24691   0.25862
 Alpha virt. eigenvalues --    0.26362   0.26716   0.27821   0.28510   0.29229
 Alpha virt. eigenvalues --    0.30231   0.30826   0.31510   0.31817   0.32488

 Mulliken charges:
               1
     1  C   -0.298657
     2  C   -0.299583
     3  C   -0.475693
     4  H    0.149732
     5  H    0.149917
     6  H    0.151978
     7  H    0.151533
     8  H    0.155154
     9  H    0.155269
    10  H    0.160191
    11  C   -0.298740
    12  C   -0.307657
    13  C   -0.476500
    14  H    0.149601
    15  H    0.149528
    16  H    0.151711
    17  H    0.160038
    18  H    0.157228
    19  H    0.154761
    20  H    0.159657
    21  C   -0.298358
    22  C   -0.302261
    23  C   -0.480754
    24  H    0.150037
    25  H    0.149484
    26  H    0.153248
    27  H    0.153485
    28  H    0.154898
    29  H    0.155977
    30  H    0.164507
    31  C   -0.298336
    32  C   -0.299688
    33  C   -0.475755
    34  H    0.149811
    35  H    0.149312
    36  H    0.152076
    37  H    0.151948
    38  H    0.155212
    39  H    0.155311
    40  H    0.160378
 Sum of Mulliken charges =  -0.00000

 Dipole moment (field-independent basis, Debye):
    X=             -0.0297    Y=              0.0073    Z=              0.0155  Tot=              0.0343
 Quadrupole moment (field-independent basis, Debye-Ang):
   XX=            -84.4216   YY=            -84.5386   ZZ=            -85.7653
   XY=              0.1911   XZ=             -1.3258   YZ=              0.3862

 Normal termination of Gaussian 16 at Wed May  5 16:34:15 2021.
