 Gaussian 16, Revision A.03,
 Gaussian 16:  EM64L-G16RevA.03 25-Dec-2016

 -------------
 #p 6-31g* mp2
 -------------

 ------------------------------------------------------
 Input file generated by CHIRIPA (05-May-2021 14:51:11)
 ------------------------------------------------------
 Symbolic Z-matrix:
 Charge =  0 Multiplicity = 1

                         Standard orientation:
 ---------------------------------------------------------------------
 Center     Atomic      Atomic             Coordinates (Angstroms)
 Number     Number       Type             X           Y           Z
 ---------------------------------------------------------------------
      1          6           0       -2.621057    1.049667   -0.369382
      2          6           0       -2.971203    2.313772    0.416380
      3          6           0       -2.060542    3.493482    0.074657
      4          1           0       -1.575749    0.778166   -0.167977
      5          1           0       -2.686409    1.264992   -1.444910
      6          1           0       -2.906555    2.095748    1.490113
      7          1           0       -4.015856    2.582187    0.213230
      8          1           0       -2.131585    3.739267   -0.989835
      9          1           0       -1.015982    3.250064    0.294303
     10          1           0       -2.328482    4.386628    0.647683
     11          6           0       -3.522660   -0.138397   -0.038711
     12          6           0       -3.172514   -1.402502   -0.824473
     13          6           0       -4.083175   -2.582211   -0.482750
     14          1           0       -3.457308   -0.353722    1.036816
     15          1           0       -4.567967    0.133105   -0.240116
     16          1           0       -2.127861   -1.670917   -0.621323
     17          1           0       -3.237161   -1.184478   -1.898206
     18          1           0       -5.127735   -2.338794   -0.702396
     19          1           0       -4.012131   -2.827996    0.581742
     20          1           0       -3.815235   -3.475357   -1.055776
     21          6           0        2.579241   -1.032170    0.295522
     22          6           0        1.245685   -0.599267    0.905611
     23          6           0        0.270733   -1.763746    1.082392
     24          1           0        2.393062   -1.507299   -0.677377
     25          1           0        3.035552   -1.799641    0.935962
     26          1           0        0.792682    0.168157    0.264937
     27          1           0        1.435076   -0.124941    1.877085
     28          1           0        0.698617   -2.528119    1.739089
     29          1           0        0.052572   -2.233354    0.117780
     30          1           0       -0.675960   -1.431838    1.519964
     31          6           0        3.564476    0.120900    0.112570
     32          6           0        4.898032   -0.312003   -0.497518
     33          6           0        5.872984    0.852476   -0.674298
     34          1           0        3.108164    0.888371   -0.527868
     35          1           0        3.750654    0.596028    1.085471
     36          1           0        4.708641   -0.786328   -1.468992
     37          1           0        5.351035   -1.079428    0.143156
     38          1           0        6.091144    1.322084    0.290313
     39          1           0        5.445099    1.616848   -1.330995
     40          1           0        6.819677    0.520567   -1.111871
 ---------------------------------------------------------------------

 SCF Done:  E(RHF) =  -470.732306717     A.U. after   11 cycles
 E2 =    -0.1584437890D+01 EUMP2 =    -0.47231674460747D+03

 The electronic state is 1-A.
 Alpha  occ. eigenvalues --  -11.21708 -11.21636 -11.21576 -11.21468 -11.21439
 Alpha  occ. eigenvalues --  -11.21404 -11.21352 -11.21294 -11.21183 -11.21094
 Alpha  occ. eigenvalues --  -11.21058 -11.20994  -1.08509  -1.08370  -1.03615
 Alpha  occ. eigenvalues --   -1.03467  -0.96062  -0.95929  -0.87098  -0.86930
 Alpha  occ. eigenvalues --   -0.79732  -0.79486  -0.78320  -0.78194  -0.65285
 Alpha  occ. eigenvalues --   -0.64922  -0.61076  -0.60828  -0.59407  -0.59299
 Alpha  occ. eigenvalues --   -0.57700  -0.57514  -0.55359  -0.55219  -0.52772
 Alpha  occ. eigenvalues --   -0.52606  -0.52480  -0.52355  -0.50152  -0.49774
 Alpha  occ. eigenvalues --   -0.48007  -0.47873  -0.46905  -0.46321  -0.45991
 Alpha  occ. eigenvalues --   -0.45751  -0.45705  -0.45423  -0.43841  -0.43726
 Alpha virt. eigenvalues --    0.20258   0.23025   0.23674   0.24351   0.25980
 Alpha virt. eigenvalues --    0.26478   0.27194   0.27448   0.27785   0.29585
 Alpha virt. eigenvalues --    0.30756   0.31085   0.31820   0.32008   0.32440

 Mulliken charges:
               1
     1  C   -0.307512
     2  C   -0.298920
     3  C   -0.476099
     4  H    0.158487
     5  H    0.149116
     6  H    0.151612
     7  H    0.151950
     8  H    0.154966
     9  H    0.155221
    10  H    0.160266
    11  C   -0.297669
    12  C   -0.308517
    13  C   -0.475089
    14  H    0.148444
    15  H    0.149640
    16  H    0.162677
    17  H    0.150579
    18  H    0.154721
    19  H    0.154869
    20  H    0.159648
    21  C   -0.298151
    22  C   -0.305726
    23  C   -0.480951
    24  H    0.150246
    25  H    0.149863
    26  H    0.156043
    27  H    0.152492
    28  H    0.156604
    29  H    0.157972
    30  H    0.162614
    31  C   -0.298585
    32  C   -0.299725
    33  C   -0.475782
    34  H    0.149877
    35  H    0.149740
    36  H    0.152101
    37  H    0.151991
    38  H    0.155228
    39  H    0.155369
    40  H    0.160388
 Sum of Mulliken charges =  -0.00000

 Dipole moment (field-independent basis, Debye):
    X=              0.0759    Y=             -0.0205    Z=              0.0128  Tot=              0.0797
 Quadrupole moment (field-independent basis, Debye-Ang):
   XX=            -85.4236   YY=            -86.1318   ZZ=            -83.4220
   XY=             -1.4310   XZ=              1.0153   YZ=             -0.1257

 Normal termination of Gaussian 16 at Wed May  5 18:15:35 2021.
