 Gaussian 16, Revision A.03,
 Gaussian 16:  EM64L-G16RevA.03 25-Dec-2016

 -------------
 #p 6-31g* mp2
 -------------

 ------------------------------------------------------
 Input file generated by CHIRIPA (05-May-2021 14:53:18)
 ------------------------------------------------------
 Symbolic Z-matrix:
 Charge =  0 Multiplicity = 1

                         Standard orientation:
 ---------------------------------------------------------------------
 Center     Atomic      Atomic             Coordinates (Angstroms)
 Number     Number       Type             X           Y           Z
 ---------------------------------------------------------------------
      1          6           0       -4.614535   -0.514196    0.015838
      2          6           0       -6.116741   -0.255934   -0.105244
      3          6           0       -6.878516   -1.453512   -0.673838
      4          1           0       -4.212035   -0.770319   -0.973779
      5          1           0       -4.450901   -1.391781    0.656513
      6          1           0       -6.277440    0.621734   -0.744378
      7          1           0       -6.515676   -0.000209    0.884742
      8          1           0       -6.747741   -2.332280   -0.034098
      9          1           0       -6.508151   -1.706803   -1.672474
     10          1           0       -7.950520   -1.247151   -0.751822
     11          6           0       -3.839343    0.673835    0.582749
     12          6           0       -2.337137    0.415572    0.703830
     13          6           0       -1.575362    1.613151    1.272424
     14          1           0       -4.002977    1.551419   -0.057926
     15          1           0       -4.241843    0.929957    1.572365
     16          1           0       -1.938202    0.159847   -0.286155
     17          1           0       -2.176438   -0.462095    1.342964
     18          1           0       -1.945727    1.866442    2.271061
     19          1           0       -1.706137    2.491918    0.632685
     20          1           0       -0.503358    1.406790    1.350409
     21          6           0        1.478491    1.494388   -1.018809
     22          6           0        1.229642    0.122078   -0.912221
     23          6           0        2.232705   -0.749811   -0.478374
     24          6           0        3.478615   -0.212859   -0.157933
     25          6           0        3.757353    1.149642   -0.253774
     26          6           0        2.739330    2.002893   -0.689825
     27          1           0        0.693478    2.164453   -1.356687
     28          1           0        0.251411   -0.275638   -1.167036
     29          1           0        2.067233   -1.816412   -0.386721
     30          1           0        4.742535    1.516562    0.007385
     31          1           0        2.935439    3.068206   -0.771644
     32          7           0        4.548431   -1.126024    0.302528
     33          8           0        5.637609   -0.628026    0.578802
     34          8           0        4.277518   -2.322468    0.378443
 ---------------------------------------------------------------------

 SCF Done:  E(RHF) =  -669.534878440     A.U. after   15 cycles
 E2 =    -0.2092517247D+01 EUMP2 =    -0.67162739568686D+03

 The electronic state is 1-A.
 Alpha  occ. eigenvalues --  -20.60757 -20.60752 -15.85811 -11.31178 -11.27753
 Alpha  occ. eigenvalues --  -11.27741 -11.27483 -11.26761 -11.26724 -11.22530
 Alpha  occ. eigenvalues --  -11.22112 -11.22097 -11.21982 -11.21810 -11.21489
 Alpha  occ. eigenvalues --   -1.59833  -1.39386  -1.19359  -1.09119  -1.08749
 Alpha  occ. eigenvalues --   -1.04764  -1.04193  -0.96623  -0.95579  -0.87636
 Alpha  occ. eigenvalues --   -0.86159  -0.82415  -0.80286  -0.78920  -0.77458
 Alpha  occ. eigenvalues --   -0.72030  -0.71157  -0.70462  -0.65789  -0.65006
 Alpha  occ. eigenvalues --   -0.64765  -0.62165  -0.61548  -0.59993  -0.58236
 Alpha  occ. eigenvalues --   -0.55921  -0.55248  -0.53490  -0.53156  -0.52860
 Alpha  occ. eigenvalues --   -0.52758  -0.50564  -0.48803  -0.48784  -0.48563
 Alpha  occ. eigenvalues --   -0.47321  -0.46451  -0.46367  -0.44791  -0.44437
 Alpha  occ. eigenvalues --   -0.37291  -0.36353
 Alpha virt. eigenvalues --    0.05065   0.11212   0.16531   0.19854   0.22595
 Alpha virt. eigenvalues --    0.24029   0.25101   0.26090   0.27030   0.28134
 Alpha virt. eigenvalues --    0.28730   0.29979   0.31104   0.31545   0.32137

 Mulliken charges:
               1
     1  C   -0.298642
     2  C   -0.300065
     3  C   -0.476091
     4  H    0.147321
     5  H    0.151388
     6  H    0.151944
     7  H    0.153443
     8  H    0.156357
     9  H    0.155083
    10  H    0.161843
    11  C   -0.297681
    12  C   -0.301654
    13  C   -0.482559
    14  H    0.148795
    15  H    0.153136
    16  H    0.140297
    17  H    0.156581
    18  H    0.159803
    19  H    0.148706
    20  H    0.168945
    21  C   -0.170399
    22  C   -0.220578
    23  C   -0.172556
    24  C    0.158485
    25  C   -0.171046
    26  C   -0.219405
    27  H    0.227144
    28  H    0.229067
    29  H    0.275952
    30  H    0.275637
    31  H    0.223601
    32  N    0.488052
    33  O   -0.460492
    34  O   -0.460410
 Sum of Mulliken charges =  -0.00000

 Dipole moment (field-independent basis, Debye):
    X=             -3.8748    Y=              3.2113    Z=             -1.5454  Tot=              5.2645
 Quadrupole moment (field-independent basis, Debye-Ang):
   XX=           -119.4039   YY=            -93.8709   ZZ=            -94.1531
   XY=             14.5415   XZ=             -5.3784   YZ=             -0.4186

 Normal termination of Gaussian 16 at Thu May  6 01:14:21 2021.
