 Gaussian 16, Revision A.03,
 Gaussian 16:  EM64L-G16RevA.03 25-Dec-2016

 -------------
 #p 6-31g* mp2
 -------------

 ------------------------------------------------------
 Input file generated by CHIRIPA (05-May-2021 14:51:11)
 ------------------------------------------------------
 Symbolic Z-matrix:
 Charge =  0 Multiplicity = 1

                         Standard orientation:
 ---------------------------------------------------------------------
 Center     Atomic      Atomic             Coordinates (Angstroms)
 Number     Number       Type             X           Y           Z
 ---------------------------------------------------------------------
      1          6           0        4.204081   -0.361744   -0.324884
      2          6           0        3.816529   -1.765027    0.142646
      3          6           0        4.807267   -2.835539   -0.315870
      4          1           0        4.273551   -0.353587   -1.421265
      5          1           0        5.207064   -0.120661    0.053666
      6          1           0        2.814007   -2.002849   -0.235517
      7          1           0        3.747786   -1.769796    1.238031
      8          1           0        5.808794   -2.625554    0.073298
      9          1           0        4.869709   -2.859931   -1.408622
     10          1           0        4.510988   -3.830991    0.029319
     11          6           0        3.223275    0.719345    0.125665
     12          6           0        3.610827    2.122629   -0.341865
     13          6           0        2.620089    3.193140    0.116651
     14          1           0        2.220292    0.478262   -0.252884
     15          1           0        3.153805    0.711189    1.222047
     16          1           0        3.679569    2.127397   -1.437249
     17          1           0        4.613349    2.360450    0.036298
     18          1           0        2.557647    3.217533    1.209403
     19          1           0        1.618562    2.983156   -0.272517
     20          1           0        2.916367    4.188592   -0.228537
     21          6           0       -3.004626    0.041486   -0.079697
     22          6           0       -1.941953   -0.495691    0.879550
     23          6           0       -0.528574   -0.046385    0.507693
     24          1           0       -2.769499   -0.290222   -1.100299
     25          1           0       -2.958512    1.139291   -0.089414
     26          1           0       -1.990982   -1.592108    0.888503
     27          1           0       -2.179743   -0.162824    1.898015
     28          1           0       -0.456523    1.046005    0.517465
     29          1           0       -0.266688   -0.391401   -0.497782
     30          1           0        0.215249   -0.441708    1.206481
     31          6           0       -4.422730   -0.399088    0.278916
     32          6           0       -5.485402    0.138089   -0.680331
     33          6           0       -6.898781   -0.311217   -0.308474
     34          1           0       -4.468844   -1.496893    0.288632
     35          1           0       -4.657857   -0.067379    1.299518
     36          1           0       -5.247612   -0.194778   -1.698796
     37          1           0       -5.436374    1.234507   -0.689285
     38          1           0       -7.160668    0.033799    0.697001
     39          1           0       -6.970833   -1.403606   -0.318247
     40          1           0       -7.642605    0.084107   -1.007263
 ---------------------------------------------------------------------

 SCF Done:  E(RHF) =  -470.732951127     A.U. after   11 cycles
 E2 =    -0.1583203325D+01 EUMP2 =    -0.47231615445142D+03

 The electronic state is 1-A.
 Alpha  occ. eigenvalues --  -11.21608 -11.21595 -11.21555 -11.21518 -11.21413
 Alpha  occ. eigenvalues --  -11.21354 -11.21305 -11.21189 -11.21076 -11.21074
 Alpha  occ. eigenvalues --  -11.21040 -11.21018  -1.08442  -1.08343  -1.03543
 Alpha  occ. eigenvalues --   -1.03463  -0.96008  -0.95901  -0.87040  -0.86913
 Alpha  occ. eigenvalues --   -0.79670  -0.79497  -0.78289  -0.78092  -0.65071
 Alpha  occ. eigenvalues --   -0.64979  -0.60948  -0.60860  -0.59367  -0.59281
 Alpha  occ. eigenvalues --   -0.57618  -0.57505  -0.55330  -0.55158  -0.52795
 Alpha  occ. eigenvalues --   -0.52590  -0.52428  -0.52282  -0.49980  -0.49814
 Alpha  occ. eigenvalues --   -0.48003  -0.47791  -0.46650  -0.46543  -0.45922
 Alpha  occ. eigenvalues --   -0.45725  -0.45675  -0.45469  -0.43748  -0.43668
 Alpha virt. eigenvalues --    0.21717   0.23016   0.23776   0.24356   0.25720
 Alpha virt. eigenvalues --    0.26318   0.26597   0.27459   0.27794   0.29674
 Alpha virt. eigenvalues --    0.30490   0.31130   0.31769   0.31874   0.32311

 Mulliken charges:
               1
     1  C   -0.297585
     2  C   -0.300467
     3  C   -0.475573
     4  H    0.148962
     5  H    0.148931
     6  H    0.152614
     7  H    0.151339
     8  H    0.155162
     9  H    0.155028
    10  H    0.159956
    11  C   -0.307296
    12  C   -0.299071
    13  C   -0.477137
    14  H    0.164246
    15  H    0.148069
    16  H    0.151302
    17  H    0.151304
    18  H    0.154907
    19  H    0.156451
    20  H    0.159809
    21  C   -0.298431
    22  C   -0.300928
    23  C   -0.479184
    24  H    0.149336
    25  H    0.149483
    26  H    0.151903
    27  H    0.152075
    28  H    0.157348
    29  H    0.153091
    30  H    0.164211
    31  C   -0.298262
    32  C   -0.299626
    33  C   -0.475709
    34  H    0.149524
    35  H    0.149733
    36  H    0.151860
    37  H    0.151962
    38  H    0.155217
    39  H    0.155178
    40  H    0.160268
 Sum of Mulliken charges =  -0.00000

 Dipole moment (field-independent basis, Debye):
    X=             -0.0348    Y=             -0.0036    Z=              0.0069  Tot=              0.0356
 Quadrupole moment (field-independent basis, Debye-Ang):
   XX=            -86.3250   YY=            -85.0241   ZZ=            -83.7803
   XY=              0.2396   XZ=              0.6958   YZ=              0.4250

 Normal termination of Gaussian 16 at Thu May  6 05:27:56 2021.
