 Gaussian 16, Revision A.03,
 Gaussian 16:  EM64L-G16RevA.03 25-Dec-2016

 -------------
 #p 6-31g* mp2
 -------------

 ------------------------------------------------------
 Input file generated by CHIRIPA (05-May-2021 14:55:25)
 ------------------------------------------------------
 Symbolic Z-matrix:
 Charge =  0 Multiplicity = 1

                         Standard orientation:
 ---------------------------------------------------------------------
 Center     Atomic      Atomic             Coordinates (Angstroms)
 Number     Number       Type             X           Y           Z
 ---------------------------------------------------------------------
      1          6           0       -3.463014   -2.219743    0.726514
      2          6           0       -2.676401   -1.905387   -0.386563
      3          6           0       -2.448150   -0.572422   -0.741040
      4          6           0       -3.024499    0.425495    0.043354
      5          6           0       -3.812895    0.144290    1.158094
      6          6           0       -4.027755   -1.195707    1.493937
      7          1           0       -3.635124   -3.257954    0.994643
      8          1           0       -2.236550   -2.698599   -0.984384
      9          1           0       -1.843304   -0.300825   -1.597670
     10          1           0       -4.238024    0.956791    1.734744
     11          1           0       -4.639082   -1.436881    2.358899
     12          7           0       -2.789948    1.840368   -0.322052
     13          8           0       -3.308971    2.701139    0.385284
     14          8           0       -2.091525    2.061782   -1.308874
     15          6           0        3.237457   -0.100204   -0.440992
     16          6           0        2.451307   -1.362154   -0.797974
     17          6           0        1.086296   -1.053815   -1.413982
     18          1           0        2.646497    0.506629    0.258628
     19          1           0        3.371612    0.508135   -1.346156
     20          1           0        2.319872   -1.968599    0.107324
     21          1           0        3.044288   -1.966143   -1.496675
     22          1           0        1.201311   -0.468818   -2.332216
     23          1           0        0.472779   -0.471287   -0.719101
     24          1           0        0.541330   -1.970113   -1.661509
     25          6           0        4.604222   -0.392102    0.175835
     26          6           0        5.390372    0.869848    0.532817
     27          6           0        6.755382    0.561510    1.148826
     28          1           0        4.470066   -1.000441    1.080998
     29          1           0        5.195182   -0.998933   -0.523785
     30          1           0        4.797391    1.473839    1.231519
     31          1           0        5.521806    1.476294   -0.372482
     32          1           0        7.368899   -0.021018    0.453945
     33          1           0        6.640368   -0.023487    2.067058
     34          1           0        7.300348    1.477808    1.396352
 ---------------------------------------------------------------------

 SCF Done:  E(RHF) =  -669.534820399     A.U. after   15 cycles
 E2 =    -0.2092045554D+01 EUMP2 =    -0.67162686595306D+03

 The electronic state is 1-A.
 Alpha  occ. eigenvalues --  -20.60742 -20.60736 -15.85793 -11.31133 -11.27722
 Alpha  occ. eigenvalues --  -11.27655 -11.27465 -11.26728 -11.26701 -11.21816
 Alpha  occ. eigenvalues --  -11.21538 -11.21423 -11.21414 -11.21355 -11.21023
 Alpha  occ. eigenvalues --   -1.59817  -1.39371  -1.19320  -1.08718  -1.08479
 Alpha  occ. eigenvalues --   -1.04723  -1.03627  -0.96106  -0.95548  -0.87142
 Alpha  occ. eigenvalues --   -0.86112  -0.82383  -0.79714  -0.78268  -0.77419
 Alpha  occ. eigenvalues --   -0.72010  -0.71143  -0.70431  -0.65112  -0.64967
 Alpha  occ. eigenvalues --   -0.64723  -0.62100  -0.61006  -0.59477  -0.57693
 Alpha  occ. eigenvalues --   -0.55418  -0.55202  -0.53151  -0.52896  -0.52761
 Alpha  occ. eigenvalues --   -0.52382  -0.50002  -0.48769  -0.48765  -0.48000
 Alpha  occ. eigenvalues --   -0.46705  -0.45814  -0.45723  -0.44773  -0.43889
 Alpha  occ. eigenvalues --   -0.37310  -0.36268
 Alpha virt. eigenvalues --    0.05084   0.11263   0.16558   0.20859   0.22834
 Alpha virt. eigenvalues --    0.24115   0.25945   0.26661   0.27269   0.28062
 Alpha virt. eigenvalues --    0.28890   0.29627   0.31301   0.31707   0.32391

 Mulliken charges:
               1
     1  C   -0.170941
     2  C   -0.219650
     3  C   -0.172026
     4  C    0.156888
     5  C   -0.171045
     6  C   -0.218852
     7  H    0.225353
     8  H    0.223687
     9  H    0.282548
    10  H    0.275311
    11  H    0.223126
    12  N    0.488372
    13  O   -0.460676
    14  O   -0.460653
    15  C   -0.299197
    16  C   -0.299774
    17  C   -0.482086
    18  H    0.153033
    19  H    0.152521
    20  H    0.150669
    21  H    0.151799
    22  H    0.161198
    23  H    0.161758
    24  H    0.148438
    25  C   -0.298524
    26  C   -0.299984
    27  C   -0.475774
    28  H    0.148467
    29  H    0.149036
    30  H    0.153474
    31  H    0.153281
    32  H    0.154726
    33  H    0.154523
    34  H    0.160976
 Sum of Mulliken charges =  -0.00000

 Dipole moment (field-independent basis, Debye):
    X=             -0.7509    Y=             -4.9038    Z=              1.2829  Tot=              5.1242
 Quadrupole moment (field-independent basis, Debye-Ang):
   XX=            -89.5634   YY=            -99.3947   ZZ=            -91.3231
   XY=             14.2450   XZ=             -7.3976   YZ=              1.5288

 Normal termination of Gaussian 16 at Wed May  5 22:28:48 2021.
