 Gaussian 16, Revision A.03,
 Gaussian 16:  EM64L-G16RevA.03 25-Dec-2016

 -------------
 #p 6-31g* mp2
 -------------

 ------------------------------------------------------
 Input file generated by CHIRIPA (05-May-2021 14:53:11)
 ------------------------------------------------------
 Symbolic Z-matrix:
 Charge =  0 Multiplicity = 1

                         Standard orientation:
 ---------------------------------------------------------------------
 Center     Atomic      Atomic             Coordinates (Angstroms)
 Number     Number       Type             X           Y           Z
 ---------------------------------------------------------------------
      1          6           0        3.920644    0.720551    0.671107
      2          6           0        2.820618    1.625952    0.115972
      3          6           0        2.426296    2.740027    1.086096
      4          1           0        3.581032    0.280396    1.618668
      5          1           0        4.803115    1.330728    0.908431
      6          1           0        1.940971    1.014045   -0.121529
      7          1           0        3.162813    2.063853   -0.830475
      8          1           0        3.288534    3.374694    1.314884
      9          1           0        2.059750    2.318921    2.027858
     10          1           0        1.638581    3.375265    0.669158
     11          6           0        4.325682   -0.398041   -0.287238
     12          6           0        5.425708   -1.303443    0.267897
     13          6           0        5.820030   -2.417517   -0.702227
     14          1           0        3.443211   -1.008219   -0.524562
     15          1           0        4.665294    0.042114   -1.234799
     16          1           0        5.083513   -1.741343    1.214344
     17          1           0        6.305355   -0.691535    0.505398
     18          1           0        6.186576   -1.996412   -1.643989
     19          1           0        4.957792   -3.052185   -0.931015
     20          1           0        6.607745   -3.052755   -0.285290
     21          6           0       -5.184944   -1.484783    0.664527
     22          6           0       -3.896920   -2.029499    0.692776
     23          6           0       -2.801485   -1.285739    0.244007
     24          6           0       -3.031376    0.005383   -0.228689
     25          6           0       -4.302638    0.575928   -0.269465
     26          6           0       -5.383342   -0.186097    0.184343
     27          1           0       -6.030183   -2.069647    1.015100
     28          1           0       -3.739861   -3.037816    1.065165
     29          1           0       -1.793725   -1.682883    0.254733
     30          1           0       -4.427800    1.583786   -0.646257
     31          1           0       -6.382527    0.239510    0.161237
     32          7           0       -1.879485    0.802437   -0.706449
     33          8           0       -2.108530    1.937623   -1.118185
     34          8           0       -0.769399    0.276888   -0.660133
 ---------------------------------------------------------------------

 SCF Done:  E(RHF) =  -669.536236855     A.U. after   15 cycles
 E2 =    -0.2090963811D+01 EUMP2 =    -0.67162720066559D+03

 The electronic state is 1-A.
 Alpha  occ. eigenvalues --  -20.60993 -20.60986 -15.86026 -11.31330 -11.27892
 Alpha  occ. eigenvalues --  -11.27885 -11.27624 -11.26894 -11.26884 -11.20939
 Alpha  occ. eigenvalues --  -11.20543 -11.20482 -11.20305 -11.20009 -11.19774
 Alpha  occ. eigenvalues --   -1.60049  -1.39607  -1.19495  -1.08902  -1.07429
 Alpha  occ. eigenvalues --   -1.04889  -1.02503  -0.95747  -0.95009  -0.86290
 Alpha  occ. eigenvalues --   -0.86037  -0.82584  -0.78601  -0.77639  -0.77169
 Alpha  occ. eigenvalues --   -0.72249  -0.71362  -0.70604  -0.65153  -0.64892
 Alpha  occ. eigenvalues --   -0.64067  -0.62237  -0.59902  -0.58400  -0.56575
 Alpha  occ. eigenvalues --   -0.55393  -0.54324  -0.53221  -0.52981  -0.51709
 Alpha  occ. eigenvalues --   -0.51429  -0.49085  -0.48998  -0.48932  -0.46901
 Alpha  occ. eigenvalues --   -0.45639  -0.45051  -0.44747  -0.44502  -0.42767
 Alpha  occ. eigenvalues --   -0.37472  -0.36490
 Alpha virt. eigenvalues --    0.04885   0.11166   0.16379   0.21293   0.23788
 Alpha virt. eigenvalues --    0.25332   0.27220   0.27585   0.28120   0.28625
 Alpha virt. eigenvalues --    0.28942   0.30869   0.32266   0.32429   0.32765

 Mulliken charges:
               1
     1  C   -0.297198
     2  C   -0.310464
     3  C   -0.474872
     4  H    0.145172
     5  H    0.144713
     6  H    0.181001
     7  H    0.148432
     8  H    0.148058
     9  H    0.149432
    10  H    0.165986
    11  C   -0.297753
    12  C   -0.298693
    13  C   -0.474904
    14  H    0.151776
    15  H    0.149008
    16  H    0.149327
    17  H    0.150441
    18  H    0.154949
    19  H    0.153821
    20  H    0.157431
    21  C   -0.170533
    22  C   -0.218514
    23  C   -0.170701
    24  C    0.157638
    25  C   -0.170415
    26  C   -0.218580
    27  H    0.226130
    28  H    0.223906
    29  H    0.275373
    30  H    0.275989
    31  H    0.223960
    32  N    0.491853
    33  O   -0.458598
    34  O   -0.463168
 Sum of Mulliken charges =  -0.00000

 Dipole moment (field-independent basis, Debye):
    X=             -4.4397    Y=             -2.8105    Z=              1.5740  Tot=              5.4852
 Quadrupole moment (field-independent basis, Debye-Ang):
   XX=            -69.5165   YY=            -92.8623   ZZ=            -96.5659
   XY=              6.6940   XZ=             -3.9799   YZ=             -1.3596

 Normal termination of Gaussian 16 at Thu May  6 05:38:38 2021.
