 Gaussian 16, Revision A.03,
 Gaussian 16:  EM64L-G16RevA.03 25-Dec-2016

 -------------
 #p 6-31g* mp2
 -------------

 ------------------------------------------------------
 Input file generated by CHIRIPA (05-May-2021 14:57:23)
 ------------------------------------------------------
 Symbolic Z-matrix:
 Charge =  0 Multiplicity = 1

                         Standard orientation:
 ---------------------------------------------------------------------
 Center     Atomic      Atomic             Coordinates (Angstroms)
 Number     Number       Type             X           Y           Z
 ---------------------------------------------------------------------
      1          6           0       -6.651337    0.173863   -0.536913
      2          6           0       -6.150463   -1.109964   -0.297257
      3          6           0       -4.798087   -1.300076    0.001884
      4          6           0       -3.971164   -0.178990    0.053392
      5          6           0       -4.440255    1.112721   -0.180545
      6          6           0       -5.796142    1.279159   -0.477896
      7          1           0       -7.703258    0.312352   -0.768597
      8          1           0       -6.812294   -1.970188   -0.342415
      9          1           0       -4.383908   -2.282852    0.191687
     10          1           0       -3.756019    1.950887   -0.128423
     11          1           0       -6.182358    2.277362   -0.663569
     12          7           0       -2.537606   -0.367722    0.369132
     13          8           0       -1.829762    0.636291    0.408511
     14          8           0       -2.148972   -1.516090    0.571251
     15          6           0        2.225715    1.626545    0.500926
     16          6           0        3.435564    2.193963    0.087619
     17          6           0        4.540144    1.384347   -0.193402
     18          6           0        4.399017    0.004933   -0.049913
     19          6           0        3.206976   -0.590341    0.359938
     20          6           0        2.115477    0.238651    0.635530
     21          1           0        1.372732    2.263000    0.717121
     22          1           0        3.524071    3.271508   -0.017784
     23          1           0        5.488559    1.797204   -0.515081
     24          1           0        3.149246   -1.667784    0.455866
     25          1           0        1.177129   -0.204783    0.956331
     26          7           0        5.561463   -0.862427   -0.344544
     27          8           0        5.411380   -2.074913   -0.210412
     28          8           0        6.600658   -0.313355   -0.704030
 ---------------------------------------------------------------------

 SCF Done:  E(RHF) =  -868.341384052     A.U. after   16 cycles
 E2 =    -0.2598459369D+01 EUMP2 =    -0.87093984342047D+03

 The electronic state is 1-A.
 Alpha  occ. eigenvalues --  -20.61983 -20.61962 -20.59842 -20.59831 -15.86961
 Alpha  occ. eigenvalues --  -15.84879 -11.31984 -11.30006 -11.28522 -11.28488
 Alpha  occ. eigenvalues --  -11.28179 -11.27446 -11.27424 -11.26591 -11.26430
 Alpha  occ. eigenvalues --  -11.26105 -11.25572 -11.25194  -1.61012  -1.58920
 Alpha  occ. eigenvalues --   -1.40575  -1.38480  -1.20119  -1.18122  -1.09580
 Alpha  occ. eigenvalues --   -1.07540  -1.05468  -1.03468  -0.96474  -0.94429
 Alpha  occ. eigenvalues --   -0.86883  -0.84856  -0.83321  -0.81263  -0.78405
 Alpha  occ. eigenvalues --   -0.76357  -0.73203  -0.72290  -0.71221  -0.71104
 Alpha  occ. eigenvalues --   -0.70240  -0.69188  -0.65776  -0.65469  -0.63749
 Alpha  occ. eigenvalues --   -0.63408  -0.62820  -0.60801  -0.55981  -0.53916
 Alpha  occ. eigenvalues --   -0.53814  -0.53555  -0.51844  -0.51533  -0.49962
 Alpha  occ. eigenvalues --   -0.49918  -0.47874  -0.47831  -0.46049  -0.43939
 Alpha  occ. eigenvalues --   -0.38074  -0.37054  -0.36077  -0.35080
 Alpha virt. eigenvalues --    0.04115   0.06131   0.10607   0.12579   0.15687
 Alpha virt. eigenvalues --    0.17713   0.20772   0.22866   0.26714   0.27625
 Alpha virt. eigenvalues --    0.28855   0.29561   0.30412   0.31842   0.32454

 Mulliken charges:
               1
     1  C   -0.169456
     2  C   -0.218511
     3  C   -0.169972
     4  C    0.158131
     5  C   -0.170129
     6  C   -0.218454
     7  H    0.228389
     8  H    0.226260
     9  H    0.277116
    10  H    0.273991
    11  H    0.225369
    12  N    0.490690
    13  O   -0.469927
    14  O   -0.458897
    15  C   -0.172832
    16  C   -0.219546
    17  C   -0.173823
    18  C    0.157812
    19  C   -0.174198
    20  C   -0.224117
    21  H    0.230535
    22  H    0.217870
    23  H    0.270842
    24  H    0.274263
    25  H    0.247292
    26  N    0.488143
    27  O   -0.462362
    28  O   -0.464481
 Sum of Mulliken charges =  -0.00000

 Dipole moment (field-independent basis, Debye):
    X=             -9.9257    Y=              3.6149    Z=             -0.0323  Tot=             10.5635
 Quadrupole moment (field-independent basis, Debye-Ang):
   XX=           -100.6247   YY=            -97.2416   ZZ=           -106.4709
   XY=             14.9602   XZ=              8.6163   YZ=             -1.4184

 Normal termination of Gaussian 16 at Wed May  5 21:00:46 2021.
