 Gaussian 16, Revision A.03,
 Gaussian 16:  EM64L-G16RevA.03 25-Dec-2016

 -------------
 #p 6-31g* mp2
 -------------

 ------------------------------------------------------
 Input file generated by CHIRIPA (05-May-2021 14:51:11)
 ------------------------------------------------------
 Symbolic Z-matrix:
 Charge =  0 Multiplicity = 1

                         Standard orientation:
 ---------------------------------------------------------------------
 Center     Atomic      Atomic             Coordinates (Angstroms)
 Number     Number       Type             X           Y           Z
 ---------------------------------------------------------------------
      1          6           0       -2.914669   -0.386042    0.192039
      2          6           0       -3.743771   -0.038183   -1.044719
      3          6           0       -4.787929    1.044690   -0.771018
      4          1           0       -3.587100   -0.717664    0.995039
      5          1           0       -2.415412    0.522023    0.557491
      6          1           0       -4.240215   -0.946913   -1.408545
      7          1           0       -3.069271    0.292466   -1.844930
      8          1           0       -4.306348    1.966689   -0.429553
      9          1           0       -5.483945    0.720268    0.009312
     10          1           0       -5.369237    1.277877   -1.668551
     11          6           0       -1.866504   -1.467082   -0.065707
     12          6           0       -1.037402   -1.814940    1.171051
     13          6           0        0.006757   -2.897813    0.897350
     14          1           0       -2.365761   -2.375146   -0.431159
     15          1           0       -1.194073   -1.135460   -0.868706
     16          1           0       -1.711902   -2.145590    1.971262
     17          1           0       -0.540958   -0.906211    1.534877
     18          1           0        0.702772   -2.573392    0.117021
     19          1           0       -0.474824   -3.819812    0.555885
     20          1           0        0.588064   -3.131001    1.794883
     21          6           0        2.159886    1.650999   -0.136656
     22          6           0        1.055724    2.038548    0.847529
     23          6           0        0.604780    3.490804    0.688172
     24          1           0        3.019267    2.320810    0.003919
     25          1           0        1.801018    1.814027   -1.162341
     26          1           0        1.416080    1.873528    1.871018
     27          1           0        0.198946    1.367613    0.704726
     28          1           0        0.219828    3.666054   -0.321631
     29          1           0        1.443877    4.174843    0.851287
     30          1           0       -0.184981    3.746516    1.401438
     31          6           0        2.621287    0.202125    0.010323
     32          6           0        3.725449   -0.185424   -0.973861
     33          6           0        4.176393   -1.637680   -0.814503
     34          1           0        2.980155    0.039096    1.036008
     35          1           0        1.761905   -0.467687   -0.130251
     36          1           0        4.582227    0.485511   -0.831058
     37          1           0        3.365093   -0.020404   -1.997349
     38          1           0        3.337296   -2.321719   -0.977620
     39          1           0        4.561345   -1.812930    0.195298
     40          1           0        4.966154   -1.893392   -1.527770
 ---------------------------------------------------------------------

 SCF Done:  E(RHF) =  -470.732592217     A.U. after   11 cycles
 E2 =    -0.1585019948D+01 EUMP2 =    -0.47231761216508D+03

 The electronic state is 1-A.
 Alpha  occ. eigenvalues --  -11.21669 -11.21630 -11.21628 -11.21574 -11.21443
 Alpha  occ. eigenvalues --  -11.21442 -11.21383 -11.21372 -11.21137 -11.21087
 Alpha  occ. eigenvalues --  -11.21083 -11.21044  -1.08521  -1.08421  -1.03581
 Alpha  occ. eigenvalues --   -1.03542  -0.96034  -0.95984  -0.87050  -0.87000
 Alpha  occ. eigenvalues --   -0.79699  -0.79556  -0.78337  -0.78244  -0.65431
 Alpha  occ. eigenvalues --   -0.64817  -0.61034  -0.60906  -0.59413  -0.59345
 Alpha  occ. eigenvalues --   -0.57649  -0.57588  -0.55399  -0.55215  -0.52723
 Alpha  occ. eigenvalues --   -0.52676  -0.52444  -0.52419  -0.50020  -0.49922
 Alpha  occ. eigenvalues --   -0.47994  -0.47963  -0.46845  -0.46538  -0.46099
 Alpha  occ. eigenvalues --   -0.45792  -0.45651  -0.45323  -0.43827  -0.43796
 Alpha virt. eigenvalues --    0.19502   0.22101   0.23843   0.24341   0.25684
 Alpha virt. eigenvalues --    0.26537   0.27006   0.27399   0.28111   0.29619
 Alpha virt. eigenvalues --    0.31250   0.31431   0.31639   0.31907   0.32472

 Mulliken charges:
               1
     1  C   -0.301985
     2  C   -0.299383
     3  C   -0.475846
     4  H    0.150152
     5  H    0.152235
     6  H    0.152082
     7  H    0.151570
     8  H    0.155474
     9  H    0.155266
    10  H    0.160319
    11  C   -0.298907
    12  C   -0.305910
    13  C   -0.479417
    14  H    0.150122
    15  H    0.148453
    16  H    0.152404
    17  H    0.157845
    18  H    0.158273
    19  H    0.154990
    20  H    0.160889
    21  C   -0.297374
    22  C   -0.308278
    23  C   -0.475491
    24  H    0.150019
    25  H    0.148982
    26  H    0.152208
    27  H    0.159297
    28  H    0.155029
    29  H    0.155729
    30  H    0.160320
    31  C   -0.306215
    32  C   -0.299617
    33  C   -0.477665
    34  H    0.149652
    35  H    0.158121
    36  H    0.152137
    37  H    0.151514
    38  H    0.157039
    39  H    0.155566
    40  H    0.160400
 Sum of Mulliken charges =  -0.00000

 Dipole moment (field-independent basis, Debye):
    X=              0.0107    Y=              0.0033    Z=              0.0200  Tot=              0.0229
 Quadrupole moment (field-independent basis, Debye-Ang):
   XX=            -84.5734   YY=            -85.8504   ZZ=            -84.2532
   XY=              1.7425   XZ=              0.3581   YZ=             -0.0215

 Normal termination of Gaussian 16 at Thu May  6 02:16:13 2021.
