 Gaussian 16, Revision A.03,
 Gaussian 16:  EM64L-G16RevA.03 25-Dec-2016

 -------------
 #p 6-31g* mp2
 -------------

 ------------------------------------------------------
 Input file generated by CHIRIPA (05-May-2021 14:55:25)
 ------------------------------------------------------
 Symbolic Z-matrix:
 Charge =  0 Multiplicity = 1

                         Standard orientation:
 ---------------------------------------------------------------------
 Center     Atomic      Atomic             Coordinates (Angstroms)
 Number     Number       Type             X           Y           Z
 ---------------------------------------------------------------------
      1          6           0        4.567140    0.905548   -0.239694
      2          6           0        3.655887    1.254716    0.762414
      3          6           0        2.499389    0.496064    0.966151
      4          6           0        2.284683   -0.610388    0.145813
      5          6           0        3.173673   -0.983800   -0.860940
      6          6           0        4.323554   -0.210627   -1.046750
      7          1           0        5.462965    1.500527   -0.390999
      8          1           0        3.842470    2.121033    1.390686
      9          1           0        1.777238    0.743854    1.734601
     10          1           0        2.960404   -1.852866   -1.471398
     11          1           0        5.029496   -0.484157   -1.825770
     12          7           0        1.063853   -1.421225    0.352011
     13          8           0        0.897721   -2.391385   -0.384077
     14          8           0        0.296214   -1.071245    1.245813
     15          6           0       -3.354137   -0.024705    0.244959
     16          6           0       -4.039281   -1.091078   -0.610267
     17          6           0       -4.377507   -2.355392    0.180245
     18          1           0       -2.435915   -0.444977    0.677608
     19          1           0       -4.007797    0.233704    1.089559
     20          1           0       -3.385121   -1.346396   -1.453772
     21          1           0       -4.955879   -0.668159   -1.041084
     22          1           0       -5.049439   -2.121283    1.012291
     23          1           0       -3.469756   -2.803375    0.597258
     24          1           0       -4.866592   -3.104364   -0.450388
     25          6           0       -3.009742    1.245190   -0.531241
     26          6           0       -2.324598    2.311564    0.323985
     27          6           0       -1.986372    3.575877   -0.466526
     28          1           0       -2.356082    0.986781   -1.375841
     29          1           0       -3.927964    1.665462   -0.963890
     30          1           0       -1.408001    1.888645    0.754802
     31          1           0       -2.978759    2.566882    1.167490
     32          1           0       -2.894124    4.023860   -0.883540
     33          1           0       -1.314440    3.341769   -1.298573
     34          1           0       -1.497287    4.324849    0.164107
 ---------------------------------------------------------------------

 SCF Done:  E(RHF) =  -669.536737159     A.U. after   15 cycles
 E2 =    -0.2091683878D+01 EUMP2 =    -0.67162842103637D+03

 The electronic state is 1-A.
 Alpha  occ. eigenvalues --  -20.61108 -20.61096 -15.86111 -11.31374 -11.27927
 Alpha  occ. eigenvalues --  -11.27923 -11.27652 -11.26921 -11.26910 -11.20955
 Alpha  occ. eigenvalues --  -11.20697 -11.20513 -11.20420 -11.19999 -11.19840
 Alpha  occ. eigenvalues --   -1.60150  -1.39708  -1.19534  -1.08950  -1.07436
 Alpha  occ. eigenvalues --   -1.04920  -1.02623  -0.95802  -0.95073  -0.86324
 Alpha  occ. eigenvalues --   -0.86094  -0.82637  -0.78722  -0.77702  -0.77179
 Alpha  occ. eigenvalues --   -0.72334  -0.71456  -0.70642  -0.65192  -0.64923
 Alpha  occ. eigenvalues --   -0.64053  -0.62268  -0.60016  -0.58492  -0.56677
 Alpha  occ. eigenvalues --   -0.55427  -0.54354  -0.53254  -0.53011  -0.51830
 Alpha  occ. eigenvalues --   -0.51498  -0.49200  -0.49094  -0.48910  -0.47033
 Alpha  occ. eigenvalues --   -0.45759  -0.45302  -0.44750  -0.44351  -0.42838
 Alpha  occ. eigenvalues --   -0.37508  -0.36517
 Alpha virt. eigenvalues --    0.04778   0.11120   0.16267   0.21142   0.23686
 Alpha virt. eigenvalues --    0.25168   0.26720   0.27462   0.27936   0.28822
 Alpha virt. eigenvalues --    0.29020   0.30925   0.31813   0.32411   0.32414

 Mulliken charges:
               1
     1  C   -0.170347
     2  C   -0.218388
     3  C   -0.171206
     4  C    0.157905
     5  C   -0.170631
     6  C   -0.218561
     7  H    0.226395
     8  H    0.224369
     9  H    0.276498
    10  H    0.275947
    11  H    0.224131
    12  N    0.488903
    13  O   -0.458220
    14  O   -0.460689
    15  C   -0.312317
    16  C   -0.297492
    17  C   -0.477489
    18  H    0.179369
    19  H    0.143560
    20  H    0.152896
    21  H    0.145138
    22  H    0.150517
    23  H    0.167066
    24  H    0.155412
    25  C   -0.296286
    26  C   -0.300486
    27  C   -0.474962
    28  H    0.146754
    29  H    0.145473
    30  H    0.153786
    31  H    0.150604
    32  H    0.154749
    33  H    0.152558
    34  H    0.155045
 Sum of Mulliken charges =  -0.00000

 Dipole moment (field-independent basis, Debye):
    X=              4.6224    Y=              2.6573    Z=             -0.6470  Tot=              5.3709
 Quadrupole moment (field-independent basis, Debye-Ang):
   XX=            -75.4982   YY=            -98.1671   ZZ=            -92.7772
   XY=              2.7134   XZ=             -2.6671   YZ=              4.0682

 Normal termination of Gaussian 16 at Thu May  6 09:34:24 2021.
