 Gaussian 16, Revision A.03,
 Gaussian 16:  EM64L-G16RevA.03 25-Dec-2016

 -------------
 #p 6-31g* mp2
 -------------

 ------------------------------------------------------
 Input file generated by CHIRIPA (05-May-2021 14:55:20)
 ------------------------------------------------------
 Symbolic Z-matrix:
 Charge =  0 Multiplicity = 1

                         Standard orientation:
 ---------------------------------------------------------------------
 Center     Atomic      Atomic             Coordinates (Angstroms)
 Number     Number       Type             X           Y           Z
 ---------------------------------------------------------------------
      1          6           0        1.625298    1.217135   -0.591915
      2          6           0        2.826676    1.881087   -0.322882
      3          6           0        3.991705    1.158149   -0.049722
      4          6           0        3.919006   -0.233967   -0.053866
      5          6           0        2.737171   -0.924394   -0.318188
      6          6           0        1.584452   -0.181022   -0.588714
      7          1           0        0.725057    1.786667   -0.803090
      8          1           0        2.861358    2.966831   -0.324690
      9          1           0        4.935120    1.646645    0.161839
     10          1           0        2.733786   -2.007596   -0.309239
     11          1           0        0.652845   -0.699331   -0.797304
     12          7           0        5.145854   -1.010126    0.233923
     13          8           0        5.055475   -2.235840    0.224237
     14          8           0        6.174605   -0.378069    0.463727
     15          6           0       -4.458046    0.836352    0.183468
     16          6           0       -2.932944    0.837116    0.293226
     17          6           0       -2.348664    2.246010    0.400139
     18          1           0       -4.756450    1.426157   -0.694046
     19          1           0       -4.882077    1.344566    1.060571
     20          1           0       -2.511965    0.327832   -0.583143
     21          1           0       -2.638128    0.247082    1.170471
     22          1           0       -2.740929    2.759703    1.283795
     23          1           0       -2.614048    2.840912   -0.479783
     24          1           0       -1.257180    2.223168    0.477614
     25          6           0       -5.056979   -0.564872    0.075853
     26          6           0       -6.582081   -0.565636   -0.033905
     27          6           0       -7.166362   -1.974529   -0.140818
     28          1           0       -4.632948   -1.073085   -0.801250
     29          1           0       -4.758575   -1.154677    0.953367
     30          1           0       -6.876897    0.024399   -0.911150
     31          1           0       -7.003060   -0.056353    0.842464
     32          1           0       -6.900976   -2.569431    0.739104
     33          1           0       -6.774097   -2.488222   -1.024474
     34          1           0       -8.257845   -1.951687   -0.218293
 ---------------------------------------------------------------------

 SCF Done:  E(RHF) =  -669.535577770     A.U. after   15 cycles
 E2 =    -0.2091022239D+01 EUMP2 =    -0.67162660000863D+03

 The electronic state is 1-A.
 Alpha  occ. eigenvalues --  -20.60743 -20.60738 -15.85797 -11.31163 -11.27726
 Alpha  occ. eigenvalues --  -11.27721 -11.27437 -11.26743 -11.26731 -11.22646
 Alpha  occ. eigenvalues --  -11.22224 -11.22176 -11.22127 -11.22017 -11.21505
 Alpha  occ. eigenvalues --   -1.59819  -1.39372  -1.19331  -1.09188  -1.08725
 Alpha  occ. eigenvalues --   -1.04733  -1.04310  -0.96759  -0.95560  -0.87777
 Alpha  occ. eigenvalues --   -0.86128  -0.82394  -0.80388  -0.78963  -0.77441
 Alpha  occ. eigenvalues --   -0.72014  -0.71142  -0.70462  -0.65812  -0.64981
 Alpha  occ. eigenvalues --   -0.64738  -0.62081  -0.61695  -0.60194  -0.58373
 Alpha  occ. eigenvalues --   -0.56029  -0.55267  -0.53442  -0.53179  -0.53015
 Alpha  occ. eigenvalues --   -0.52821  -0.50683  -0.48787  -0.48770  -0.48679
 Alpha  occ. eigenvalues --   -0.47413  -0.46511  -0.46409  -0.44778  -0.44553
 Alpha  occ. eigenvalues --   -0.37304  -0.36337
 Alpha virt. eigenvalues --    0.05062   0.11310   0.16461   0.19524   0.22486
 Alpha virt. eigenvalues --    0.23923   0.25470   0.26259   0.26409   0.27699
 Alpha virt. eigenvalues --    0.28987   0.29953   0.30823   0.31590   0.32279

 Mulliken charges:
               1
     1  C   -0.174910
     2  C   -0.219425
     3  C   -0.170999
     4  C    0.158720
     5  C   -0.171088
     6  C   -0.220553
     7  H    0.231781
     8  H    0.223630
     9  H    0.275490
    10  H    0.275539
    11  H    0.224839
    12  N    0.488033
    13  O   -0.460476
    14  O   -0.460468
    15  C   -0.298635
    16  C   -0.300593
    17  C   -0.481076
    18  H    0.150870
    19  H    0.152376
    20  H    0.145473
    21  H    0.155614
    22  H    0.161856
    23  H    0.156396
    24  H    0.153896
    25  C   -0.298919
    26  C   -0.300233
    27  C   -0.476148
    28  H    0.148863
    29  H    0.150944
    30  H    0.152564
    31  H    0.153126
    32  H    0.156082
    33  H    0.155464
    34  H    0.161966
 Sum of Mulliken charges =  -0.00000

 Dipole moment (field-independent basis, Debye):
    X=             -4.5449    Y=              2.7351    Z=             -0.9641  Tot=              5.3913
 Quadrupole moment (field-independent basis, Debye-Ang):
   XX=           -127.1823   YY=            -93.4104   ZZ=            -94.3915
   XY=             13.7600   XZ=             -3.7386   YZ=              0.5541

 Normal termination of Gaussian 16 at Wed May  5 17:23:26 2021.
