 Gaussian 16, Revision A.03,
 Gaussian 16:  EM64L-G16RevA.03 25-Dec-2016

 -------------
 #p 6-31g* mp2
 -------------

 ------------------------------------------------------
 Input file generated by CHIRIPA (05-May-2021 14:55:23)
 ------------------------------------------------------
 Symbolic Z-matrix:
 Charge =  0 Multiplicity = 1

                         Standard orientation:
 ---------------------------------------------------------------------
 Center     Atomic      Atomic             Coordinates (Angstroms)
 Number     Number       Type             X           Y           Z
 ---------------------------------------------------------------------
      1          6           0        5.410348   -1.384147    0.445711
      2          6           0        4.169634   -2.025466    0.522256
      3          6           0        2.994498   -1.338702    0.202949
      4          6           0        3.097309   -0.005446   -0.190939
      5          6           0        4.318605    0.661131   -0.276971
      6          6           0        5.480750   -0.045256    0.047045
      7          1           0        6.318176   -1.925263    0.695585
      8          1           0        4.111938   -3.065201    0.831559
      9          1           0        2.020868   -1.810824    0.253588
     10          1           0        4.344282    1.698286   -0.588528
     11          1           0        6.442930    0.455355   -0.013304
     12          7           0        1.860122    0.731987   -0.531468
     13          8           0        1.977579    1.906000   -0.875758
     14          8           0        0.796384    0.122011   -0.447636
     15          6           0       -4.888891   -0.099568   -0.100774
     16          6           0       -5.046980   -1.613846    0.040490
     17          6           0       -6.379067   -2.123128   -0.510844
     18          1           0       -5.717660    0.399374    0.419941
     19          1           0       -4.976356    0.173848   -1.161429
     20          1           0       -4.957862   -1.884483    1.100409
     21          1           0       -4.217633   -2.109237   -0.480459
     22          1           0       -6.473270   -1.881763   -1.574550
     23          1           0       -7.217705   -1.655731    0.015301
     24          1           0       -6.471096   -3.208041   -0.399691
     25          6           0       -3.562214    0.424648    0.445903
     26          6           0       -3.404124    1.938925    0.304639
     27          6           0       -2.072037    2.448206    0.855973
     28          1           0       -3.474748    0.151231    1.506557
     29          1           0       -2.733445   -0.074295   -0.074813
     30          1           0       -4.233471    2.434316    0.825588
     31          1           0       -3.493243    2.209562   -0.755281
     32          1           0       -1.233400    1.980809    0.329827
     33          1           0       -1.977834    2.206842    1.919678
     34          1           0       -1.980008    3.533120    0.744819
 ---------------------------------------------------------------------

 SCF Done:  E(RHF) =  -669.536851283     A.U. after   15 cycles
 E2 =    -0.2091312510D+01 EUMP2 =    -0.67162816379316D+03

 The electronic state is 1-A.
 Alpha  occ. eigenvalues --  -20.61081 -20.61065 -15.86078 -11.31358 -11.27910
 Alpha  occ. eigenvalues --  -11.27906 -11.27641 -11.26906 -11.26896 -11.20874
 Alpha  occ. eigenvalues --  -11.20491 -11.20450 -11.20248 -11.20114 -11.19271
 Alpha  occ. eigenvalues --   -1.60114  -1.39672  -1.19517  -1.08931  -1.07362
 Alpha  occ. eigenvalues --   -1.04905  -1.02421  -0.95780  -0.94854  -0.86308
 Alpha  occ. eigenvalues --   -0.85871  -0.82615  -0.78540  -0.77674  -0.77120
 Alpha  occ. eigenvalues --   -0.72291  -0.71418  -0.70625  -0.65172  -0.64908
 Alpha  occ. eigenvalues --   -0.63994  -0.62252  -0.59814  -0.58299  -0.56463
 Alpha  occ. eigenvalues --   -0.55415  -0.54130  -0.53239  -0.52996  -0.51574
 Alpha  occ. eigenvalues --   -0.51285  -0.49228  -0.49049  -0.48627  -0.46813
 Alpha  occ. eigenvalues --   -0.45571  -0.45095  -0.44667  -0.44490  -0.42683
 Alpha  occ. eigenvalues --   -0.37493  -0.36503
 Alpha virt. eigenvalues --    0.04838   0.11153   0.16345   0.21287   0.23867
 Alpha virt. eigenvalues --    0.25500   0.27215   0.27658   0.28160   0.28562
 Alpha virt. eigenvalues --    0.29215   0.30858   0.32361   0.32566   0.32697

 Mulliken charges:
               1
     1  C   -0.170394
     2  C   -0.218602
     3  C   -0.170562
     4  C    0.158690
     5  C   -0.170588
     6  C   -0.218634
     7  H    0.226239
     8  H    0.224091
     9  H    0.276028
    10  H    0.276080
    11  H    0.224059
    12  N    0.489205
    13  O   -0.458165
    14  O   -0.460539
    15  C   -0.297492
    16  C   -0.298780
    17  C   -0.475007
    18  H    0.146472
    19  H    0.148768
    20  H    0.149584
    21  H    0.151939
    22  H    0.154646
    23  H    0.153919
    24  H    0.157222
    25  C   -0.300776
    26  C   -0.297338
    27  C   -0.487845
    28  H    0.144515
    29  H    0.161984
    30  H    0.144640
    31  H    0.150872
    32  H    0.186262
    33  H    0.145431
    34  H    0.154078
 Sum of Mulliken charges =  -0.00000

 Dipole moment (field-independent basis, Debye):
    X=              4.8182    Y=             -2.6472    Z=              1.0827  Tot=              5.6032
 Quadrupole moment (field-independent basis, Debye-Ang):
   XX=            -68.6477   YY=            -92.3111   ZZ=            -95.4157
   XY=             -6.0751   XZ=              1.9690   YZ=             -0.8489

 Normal termination of Gaussian 16 at Thu May  6 07:52:31 2021.
