 Gaussian 16, Revision A.03,
 Gaussian 16:  EM64L-G16RevA.03 25-Dec-2016

 -------------
 #p 6-31g* mp2
 -------------

 ------------------------------------------------------
 Input file generated by CHIRIPA (05-May-2021 14:53:13)
 ------------------------------------------------------
 Symbolic Z-matrix:
 Charge =  0 Multiplicity = 1

                         Standard orientation:
 ---------------------------------------------------------------------
 Center     Atomic      Atomic             Coordinates (Angstroms)
 Number     Number       Type             X           Y           Z
 ---------------------------------------------------------------------
      1          6           0       -2.303442   -0.661995    0.874739
      2          6           0       -1.627813   -2.032398    0.933962
      3          6           0       -0.563011   -2.119752    2.027744
      4          1           0       -1.539439    0.109468    0.707139
      5          1           0       -2.759657   -0.443395    1.850176
      6          1           0       -1.174196   -2.248950   -0.041718
      7          1           0       -2.393536   -2.800708    1.101249
      8          1           0       -1.004567   -1.929453    3.011317
      9          1           0        0.221700   -1.374561    1.861855
     10          1           0       -0.092860   -3.107788    2.052344
     11          6           0       -3.370342   -0.559089   -0.213774
     12          6           0       -4.045971    0.811314   -0.272997
     13          6           0       -5.110773    0.898668   -1.366779
     14          1           0       -2.914127   -0.777689   -1.189211
     15          1           0       -4.134345   -1.330553   -0.046174
     16          1           0       -3.280249    1.579624   -0.440284
     17          1           0       -4.499588    1.027866    0.702683
     18          1           0       -5.895484    0.153477   -1.200890
     19          1           0       -4.669217    0.708369   -2.350352
     20          1           0       -5.580924    1.886703   -1.391379
     21          6           0        1.178127    2.474559    0.881012
     22          6           0        0.491996    1.820330   -0.147448
     23          6           0        1.057592    0.712514   -0.785722
     24          6           0        2.316691    0.283868   -0.368324
     25          6           0        3.025231    0.914545    0.653200
     26          6           0        2.440330    2.020378    1.277354
     27          1           0        0.731261    3.334367    1.371355
     28          1           0       -0.488388    2.170845   -0.457335
     29          1           0        0.548409    0.187372   -1.584707
     30          1           0        4.001030    0.541876    0.940170
     31          1           0        2.975493    2.526506    2.075778
     32          7           0        2.925680   -0.887878   -1.036562
     33          8           0        4.036212   -1.245879   -0.650309
     34          8           0        2.280943   -1.426104   -1.933926
 ---------------------------------------------------------------------

 SCF Done:  E(RHF) =  -669.534806739     A.U. after   15 cycles
 E2 =    -0.2094409559D+01 EUMP2 =    -0.67162921629824D+03

 The electronic state is 1-A.
 Alpha  occ. eigenvalues --  -20.60855 -20.60848 -15.85909 -11.31316 -11.27882
 Alpha  occ. eigenvalues --  -11.27869 -11.27604 -11.26886 -11.26876 -11.22233
 Alpha  occ. eigenvalues --  -11.21780 -11.21641 -11.21548 -11.21544 -11.21022
 Alpha  occ. eigenvalues --   -1.59927  -1.39479  -1.19493  -1.08875  -1.08760
 Alpha  occ. eigenvalues --   -1.04902  -1.03808  -0.96245  -0.95697  -0.87264
 Alpha  occ. eigenvalues --   -0.86286  -0.82537  -0.79905  -0.78566  -0.77570
 Alpha  occ. eigenvalues --   -0.72124  -0.71251  -0.70574  -0.65499  -0.65121
 Alpha  occ. eigenvalues --   -0.64861  -0.62222  -0.61232  -0.59627  -0.57848
 Alpha  occ. eigenvalues --   -0.55545  -0.55371  -0.53260  -0.53007  -0.52909
 Alpha  occ. eigenvalues --   -0.52659  -0.50216  -0.48888  -0.48877  -0.48199
 Alpha  occ. eigenvalues --   -0.46962  -0.46077  -0.45994  -0.44873  -0.44060
 Alpha  occ. eigenvalues --   -0.37446  -0.36395
 Alpha virt. eigenvalues --    0.04943   0.11065   0.16318   0.19323   0.23026
 Alpha virt. eigenvalues --    0.23552   0.25200   0.26015   0.27281   0.28487
 Alpha virt. eigenvalues --    0.29814   0.30018   0.31483   0.31531   0.32163

 Mulliken charges:
               1
     1  C   -0.307152
     2  C   -0.300898
     3  C   -0.478155
     4  H    0.152239
     5  H    0.148350
     6  H    0.156623
     7  H    0.152760
     8  H    0.152744
     9  H    0.156017
    10  H    0.164424
    11  C   -0.299088
    12  C   -0.299460
    13  C   -0.475712
    14  H    0.148283
    15  H    0.153202
    16  H    0.140707
    17  H    0.153924
    18  H    0.158390
    19  H    0.155946
    20  H    0.160216
    21  C   -0.172119
    22  C   -0.221692
    23  C   -0.170733
    24  C    0.159677
    25  C   -0.171468
    26  C   -0.218101
    27  H    0.226879
    28  H    0.229170
    29  H    0.276419
    30  H    0.276346
    31  H    0.224250
    32  N    0.488221
    33  O   -0.459730
    34  O   -0.460480
 Sum of Mulliken charges =  -0.00000

 Dipole moment (field-independent basis, Debye):
    X=             -2.0787    Y=              4.0858    Z=              2.3560  Tot=              5.1542
 Quadrupole moment (field-independent basis, Debye-Ang):
   XX=           -101.5194   YY=            -92.8079   ZZ=            -95.4541
   XY=             10.0371   XZ=              8.0785   YZ=             -0.4797

 Normal termination of Gaussian 16 at Wed May  5 20:12:22 2021.
