 Gaussian 16, Revision A.03,
 Gaussian 16:  EM64L-G16RevA.03 25-Dec-2016

 -------------
 #p 6-31g* mp2
 -------------

 ------------------------------------------------------
 Input file generated by CHIRIPA (05-May-2021 14:55:20)
 ------------------------------------------------------
 Symbolic Z-matrix:
 Charge =  0 Multiplicity = 1

                         Standard orientation:
 ---------------------------------------------------------------------
 Center     Atomic      Atomic             Coordinates (Angstroms)
 Number     Number       Type             X           Y           Z
 ---------------------------------------------------------------------
      1          6           0       -5.993564   -0.216555    0.648706
      2          6           0       -5.238290    0.958830    0.716180
      3          6           0       -3.895611    0.963360    0.326642
      4          6           0       -3.337693   -0.230711   -0.127462
      5          6           0       -4.064038   -1.417937   -0.206245
      6          6           0       -5.405065   -1.399102    0.188521
      7          1           0       -7.035948   -0.210998    0.953339
      8          1           0       -5.692698    1.878680    1.073160
      9          1           0       -3.287826    1.859044    0.368679
     10          1           0       -3.583366   -2.319423   -0.566379
     11          1           0       -5.989202   -2.313416    0.135051
     12          7           0       -1.917133   -0.238283   -0.542615
     13          8           0       -1.448989   -1.303320   -0.939070
     14          8           0       -1.298740    0.820961   -0.463697
     15          6           0        5.156137    0.001302    0.471331
     16          6           0        5.742616   -1.262767   -0.158079
     17          6           0        6.910543   -1.835928    0.645181
     18          1           0        5.946828    0.758542    0.562654
     19          1           0        4.822562   -0.227086    1.493077
     20          1           0        6.073722   -1.032402   -1.178823
     21          1           0        4.950393   -2.017018   -0.248090
     22          1           0        6.590522   -2.093477    1.659999
     23          1           0        7.720233   -1.103267    0.723979
     24          1           0        7.314612   -2.739120    0.177384
     25          6           0        3.987717    0.586124   -0.320190
     26          6           0        3.401239    1.850192    0.309221
     27          6           0        2.233313    2.423354   -0.494040
     28          1           0        4.321292    0.814513   -1.341934
     29          1           0        3.197027   -0.171117   -0.411513
     30          1           0        4.193462    2.604445    0.399232
     31          1           0        3.070133    1.619829    1.329965
     32          1           0        1.423622    1.690693   -0.572837
     33          1           0        2.553334    2.680904   -1.508857
     34          1           0        1.829244    3.326545   -0.026242
 ---------------------------------------------------------------------

 SCF Done:  E(RHF) =  -669.536338381     A.U. after   15 cycles
 E2 =    -0.2090775508D+01 EUMP2 =    -0.67162711388954D+03

 The electronic state is 1-A.
 Alpha  occ. eigenvalues --  -20.61008 -20.60984 -15.86023 -11.31322 -11.27882
 Alpha  occ. eigenvalues --  -11.27877 -11.27616 -11.26884 -11.26874 -11.20815
 Alpha  occ. eigenvalues --  -11.20480 -11.20437 -11.20363 -11.20206 -11.19386
 Alpha  occ. eigenvalues --   -1.60057  -1.39612  -1.19488  -1.08897  -1.07403
 Alpha  occ. eigenvalues --   -1.04880  -1.02462  -0.95743  -0.94893  -0.86282
 Alpha  occ. eigenvalues --   -0.85906  -0.82576  -0.78556  -0.77631  -0.77183
 Alpha  occ. eigenvalues --   -0.72246  -0.71367  -0.70596  -0.65144  -0.64883
 Alpha  occ. eigenvalues --   -0.64035  -0.62227  -0.59853  -0.58323  -0.56508
 Alpha  occ. eigenvalues --   -0.55387  -0.54165  -0.53214  -0.52971  -0.51607
 Alpha  occ. eigenvalues --   -0.51316  -0.49174  -0.48999  -0.48637  -0.46839
 Alpha  occ. eigenvalues --   -0.45577  -0.45028  -0.44726  -0.44607  -0.42730
 Alpha  occ. eigenvalues --   -0.37467  -0.36480
 Alpha virt. eigenvalues --    0.04899   0.11176   0.16403   0.21312   0.23855
 Alpha virt. eigenvalues --    0.25436   0.27233   0.27673   0.28176   0.28528
 Alpha virt. eigenvalues --    0.29168   0.30884   0.32358   0.32556   0.32715

 Mulliken charges:
               1
     1  C   -0.170508
     2  C   -0.218574
     3  C   -0.170841
     4  C    0.157526
     5  C   -0.170461
     6  C   -0.218630
     7  H    0.226096
     8  H    0.223982
     9  H    0.276226
    10  H    0.275868
    11  H    0.223888
    12  N    0.490822
    13  O   -0.459390
    14  O   -0.461319
    15  C   -0.297416
    16  C   -0.299293
    17  C   -0.475114
    18  H    0.146618
    19  H    0.147840
    20  H    0.150867
    21  H    0.153599
    22  H    0.154000
    23  H    0.153556
    24  H    0.158244
    25  C   -0.299509
    26  C   -0.297995
    27  C   -0.487054
    28  H    0.147141
    29  H    0.157978
    30  H    0.145265
    31  H    0.148953
    32  H    0.187202
    33  H    0.148372
    34  H    0.152061
 Sum of Mulliken charges =  -0.00000

 Dipole moment (field-independent basis, Debye):
    X=             -5.4073    Y=             -0.0826    Z=              1.4166  Tot=              5.5904
 Quadrupole moment (field-independent basis, Debye-Ang):
   XX=            -63.5638   YY=            -90.5589   ZZ=            -95.7988
   XY=              1.9457   XZ=             -5.2529   YZ=              0.8800

 Normal termination of Gaussian 16 at Wed May  5 23:45:26 2021.
