 Gaussian 16, Revision A.03,
 Gaussian 16:  EM64L-G16RevA.03 25-Dec-2016

 -------------
 #p 6-31g* mp2
 -------------

 ------------------------------------------------------
 Input file generated by CHIRIPA (05-May-2021 14:57:27)
 ------------------------------------------------------
 Symbolic Z-matrix:
 Charge =  0 Multiplicity = 1

                         Standard orientation:
 ---------------------------------------------------------------------
 Center     Atomic      Atomic             Coordinates (Angstroms)
 Number     Number       Type             X           Y           Z
 ---------------------------------------------------------------------
      1          6           0        1.092965   -2.150673    1.684474
      2          6           0        1.674563   -1.011973    2.251595
      3          6           0        2.198846   -0.002675    1.438581
      4          6           0        2.124367   -0.165497    0.056108
      5          6           0        1.551147   -1.288264   -0.538959
      6          6           0        1.033218   -2.284948    0.293459
      7          1           0        0.688157   -2.929820    2.323580
      8          1           0        1.722346   -0.905007    3.331559
      9          1           0        2.654606    0.889235    1.851130
     10          1           0        1.518087   -1.366589   -1.618861
     11          1           0        0.582119   -3.168190   -0.149752
     12          7           0        2.676039    0.896324   -0.814865
     13          8           0        2.598119    0.728982   -2.030004
     14          8           0        3.175912    1.875816   -0.265903
     15          6           0       -2.146560   -1.846339   -1.452998
     16          6           0       -2.674420   -1.751821   -0.161119
     17          6           0       -2.617286   -0.545202    0.542696
     18          6           0       -2.022509    0.551914   -0.078486
     19          6           0       -1.487718    0.489339   -1.364321
     20          6           0       -1.555935   -0.727429   -2.049425
     21          1           0       -2.195248   -2.787613   -1.992470
     22          1           0       -3.133692   -2.619146    0.304566
     23          1           0       -3.018110   -0.444149    1.543968
     24          1           0       -1.036055    1.371163   -1.802278
     25          1           0       -1.145172   -0.797912   -3.052595
     26          7           0       -1.956157    1.834680    0.656706
     27          8           0       -1.426956    2.786693    0.087273
     28          8           0       -2.434609    1.863810    1.788463
 ---------------------------------------------------------------------

 SCF Done:  E(RHF) =  -868.335856391     A.U. after   16 cycles
 E2 =    -0.2605911611D+01 EUMP2 =    -0.87094176800218D+03

 The electronic state is 1-A.
 Alpha  occ. eigenvalues --  -20.60927 -20.60888 -20.60841 -20.60777 -15.85964
 Alpha  occ. eigenvalues --  -15.85860 -11.31457 -11.31187 -11.28099 -11.27960
 Alpha  occ. eigenvalues --  -11.27847 -11.27847 -11.27711 -11.27557 -11.27161
 Alpha  occ. eigenvalues --  -11.27026 -11.26854 -11.26737  -1.59985  -1.59880
 Alpha  occ. eigenvalues --   -1.39533  -1.39438  -1.19681  -1.19365  -1.09053
 Alpha  occ. eigenvalues --   -1.08792  -1.05086  -1.04781  -0.95852  -0.95632
 Alpha  occ. eigenvalues --   -0.86487  -0.86198  -0.82673  -0.82466  -0.77695
 Alpha  occ. eigenvalues --   -0.77502  -0.72178  -0.72083  -0.71343  -0.71182
 Alpha  occ. eigenvalues --   -0.70784  -0.70537  -0.65313  -0.65092  -0.65048
 Alpha  occ. eigenvalues --   -0.64817  -0.62412  -0.62157  -0.55621  -0.55342
 Alpha  occ. eigenvalues --   -0.54222  -0.53168  -0.52899  -0.52296  -0.48956
 Alpha  occ. eigenvalues --   -0.48925  -0.48853  -0.48820  -0.44910  -0.44848
 Alpha  occ. eigenvalues --   -0.38029  -0.37748  -0.36407  -0.35838
 Alpha virt. eigenvalues --    0.04752   0.05054   0.10714   0.11467   0.16145
 Alpha virt. eigenvalues --    0.16611   0.20327   0.21882   0.26193   0.26919
 Alpha virt. eigenvalues --    0.28279   0.28623   0.30005   0.31413   0.32017

 Mulliken charges:
               1
     1  C   -0.172325
     2  C   -0.218806
     3  C   -0.170149
     4  C    0.155963
     5  C   -0.165714
     6  C   -0.209878
     7  H    0.222643
     8  H    0.225504
     9  H    0.279355
    10  H    0.267128
    11  H    0.214796
    12  N    0.488807
    13  O   -0.468289
    14  O   -0.453480
    15  C   -0.175860
    16  C   -0.218855
    17  C   -0.168486
    18  C    0.161930
    19  C   -0.171187
    20  C   -0.223457
    21  H    0.222732
    22  H    0.220285
    23  H    0.274406
    24  H    0.285110
    25  H    0.227944
    26  N    0.487138
    27  O   -0.454478
    28  O   -0.462774
 Sum of Mulliken charges =  -0.00000

 Dipole moment (field-independent basis, Debye):
    X=             -2.1627    Y=             -7.9465    Z=              0.5396  Tot=              8.2532
 Quadrupole moment (field-independent basis, Debye-Ang):
   XX=           -112.2663   YY=           -107.5502   ZZ=            -98.2462
   XY=              3.3846   XZ=             11.2348   YZ=             -1.3971

 Normal termination of Gaussian 16 at Fri May  7 12:47:00 2021.
