 Gaussian 16, Revision A.03,
 Gaussian 16:  EM64L-G16RevA.03 25-Dec-2016

 -------------
 #p 6-31g* mp2
 -------------

 ------------------------------------------------------
 Input file generated by CHIRIPA (05-May-2021 14:53:14)
 ------------------------------------------------------
 Symbolic Z-matrix:
 Charge =  0 Multiplicity = 1

                         Standard orientation:
 ---------------------------------------------------------------------
 Center     Atomic      Atomic             Coordinates (Angstroms)
 Number     Number       Type             X           Y           Z
 ---------------------------------------------------------------------
      1          6           0       -3.977029   -0.247109    0.475150
      2          6           0       -4.199101   -1.448117   -0.444768
      3          6           0       -4.859291   -2.626924    0.271022
      4          1           0       -3.355322   -0.555616    1.326765
      5          1           0       -4.942927    0.070175    0.892004
      6          1           0       -3.233253   -1.762176   -0.860846
      7          1           0       -4.820193   -1.136667   -1.294392
      8          1           0       -5.835768   -2.336341    0.671839
      9          1           0       -4.239812   -2.965404    1.107848
     10          1           0       -5.008674   -3.474527   -0.405081
     11          6           0       -3.317840    0.939321   -0.225980
     12          6           0       -3.095769    2.140328    0.693938
     13          6           0       -2.435579    3.319136   -0.021852
     14          1           0       -2.351942    0.622037   -0.642834
     15          1           0       -3.939548    1.247828   -1.077595
     16          1           0       -2.474677    1.828879    1.543562
     17          1           0       -4.061616    2.454388    1.110016
     18          1           0       -3.055058    3.657616   -0.858678
     19          1           0       -1.459101    3.028553   -0.422669
     20          1           0       -2.286196    4.166739    0.654251
     21          6           0        5.283227    0.185529    0.387762
     22          6           0        4.771899   -1.108770    0.528662
     23          6           0        3.425064   -1.372964    0.262608
     24          6           0        2.614281   -0.314472   -0.144229
     25          6           0        3.094083    0.985797   -0.293819
     26          6           0        4.444165    1.226847   -0.022306
     27          1           0        6.330742    0.381772    0.596559
     28          1           0        5.421195   -1.919414    0.846966
     29          1           0        3.003052   -2.365502    0.363563
     30          1           0        2.422279    1.773420   -0.612800
     31          1           0        4.838527    2.233010   -0.132582
     32          7           0        1.186727   -0.581911   -0.428778
     33          8           0        0.493155    0.367901   -0.785784
     34          8           0        0.788413   -1.736277   -0.289413
 ---------------------------------------------------------------------

 SCF Done:  E(RHF) =  -669.536826553     A.U. after   15 cycles
 E2 =    -0.2091522510D+01 EUMP2 =    -0.67162834906279D+03

 The electronic state is 1-A.
 Alpha  occ. eigenvalues --  -20.61152 -20.61134 -15.86157 -11.31403 -11.27955
 Alpha  occ. eigenvalues --  -11.27951 -11.27680 -11.26945 -11.26935 -11.20353
 Alpha  occ. eigenvalues --  -11.20237 -11.19999 -11.19972 -11.19957 -11.19671
 Alpha  occ. eigenvalues --   -1.60191  -1.39749  -1.19562  -1.08982  -1.07018
 Alpha  occ. eigenvalues --   -1.04947  -1.02263  -0.95835  -0.94719  -0.86351
 Alpha  occ. eigenvalues --   -0.85748  -0.82672  -0.78329  -0.77734  -0.76813
 Alpha  occ. eigenvalues --   -0.72379  -0.71495  -0.70671  -0.65221  -0.64950
 Alpha  occ. eigenvalues --   -0.63620  -0.62294  -0.59651  -0.58100  -0.56341
 Alpha  occ. eigenvalues --   -0.55455  -0.53995  -0.53283  -0.53037  -0.51485
 Alpha  occ. eigenvalues --   -0.51167  -0.49210  -0.49134  -0.48598  -0.46657
 Alpha  occ. eigenvalues --   -0.45341  -0.45169  -0.44407  -0.44117  -0.42473
 Alpha  occ. eigenvalues --   -0.37537  -0.36544
 Alpha virt. eigenvalues --    0.04786   0.11113   0.16292   0.21192   0.24270
 Alpha virt. eigenvalues --    0.25392   0.27117   0.27683   0.28247   0.29047
 Alpha virt. eigenvalues --    0.29302   0.30794   0.31909   0.32714   0.33000

 Mulliken charges:
               1
     1  C   -0.295818
     2  C   -0.301819
     3  C   -0.474781
     4  H    0.149301
     5  H    0.142226
     6  H    0.164729
     7  H    0.147160
     8  H    0.150668
     9  H    0.154862
    10  H    0.156949
    11  C   -0.312758
    12  C   -0.295378
    13  C   -0.478654
    14  H    0.182568
    15  H    0.142002
    16  H    0.149415
    17  H    0.145386
    18  H    0.151511
    19  H    0.164084
    20  H    0.152136
    21  C   -0.170322
    22  C   -0.218616
    23  C   -0.170434
    24  C    0.157483
    25  C   -0.170543
    26  C   -0.218558
    27  H    0.226442
    28  H    0.224204
    29  H    0.276033
    30  H    0.275961
    31  H    0.224364
    32  N    0.491106
    33  O   -0.462211
    34  O   -0.458698
 Sum of Mulliken charges =  -0.00000

 Dipole moment (field-independent basis, Debye):
    X=              5.5168    Y=              0.7974    Z=              0.8957  Tot=              5.6456
 Quadrupole moment (field-independent basis, Debye-Ang):
   XX=            -69.9286   YY=            -92.2714   ZZ=            -95.8788
   XY=             -0.2870   XZ=              2.9278   YZ=             -1.6032

 Normal termination of Gaussian 16 at Thu May  6 05:50:29 2021.
