 Gaussian 16, Revision A.03,
 Gaussian 16:  EM64L-G16RevA.03 25-Dec-2016

 -------------
 #p 6-31g* mp2
 -------------

 ------------------------------------------------------
 Input file generated by CHIRIPA (05-May-2021 14:55:25)
 ------------------------------------------------------
 Symbolic Z-matrix:
 Charge =  0 Multiplicity = 1

                         Standard orientation:
 ---------------------------------------------------------------------
 Center     Atomic      Atomic             Coordinates (Angstroms)
 Number     Number       Type             X           Y           Z
 ---------------------------------------------------------------------
      1          6           0       -5.350287    0.054828   -0.589265
      2          6           0       -4.811663   -1.227026   -0.436769
      3          6           0       -3.480902   -1.395754   -0.042874
      4          6           0       -2.713852   -0.255527    0.191235
      5          6           0       -3.221668    1.034774    0.047929
      6          6           0       -4.554973    1.179654   -0.346857
      7          1           0       -6.385043    0.176636   -0.895598
      8          1           0       -5.426971   -2.102388   -0.624341
      9          1           0       -3.038478   -2.376512    0.082798
     10          1           0       -2.583600    1.888340    0.242130
     11          1           0       -4.970609    2.176375   -0.464489
     12          7           0       -1.303689   -0.421527    0.608706
     13          8           0       -0.648769    0.599088    0.808861
     14          8           0       -0.880023   -1.569111    0.727859
     15          6           0        3.872015    1.049189   -0.161048
     16          6           0        2.565400    1.835501   -0.049430
     17          6           0        2.783461    3.348822   -0.059464
     18          1           0        4.534275    1.331163    0.668920
     19          1           0        4.388943    1.339965   -1.086051
     20          1           0        2.050422    1.542314    0.874395
     21          1           0        1.906097    1.551481   -0.879653
     22          1           0        3.275482    3.661002   -0.986319
     23          1           0        3.420627    3.651784    0.777696
     24          1           0        1.836413    3.891443    0.021296
     25          6           0        3.670422   -0.465080   -0.152375
     26          6           0        4.977037   -1.251391   -0.263994
     27          6           0        4.758976   -2.764713   -0.253960
     28          1           0        3.153494   -0.755856    0.772628
     29          1           0        3.008162   -0.747054   -0.982343
     30          1           0        5.636339   -0.967371    0.566228
     31          1           0        5.492015   -0.958204   -1.187820
     32          1           0        4.121811   -3.067675   -1.091120
     33          1           0        4.266955   -3.076893    0.672895
     34          1           0        5.706024   -3.307334   -0.334719
 ---------------------------------------------------------------------

 SCF Done:  E(RHF) =  -669.535742276     A.U. after   15 cycles
 E2 =    -0.2091279507D+01 EUMP2 =    -0.67162702178330D+03

 The electronic state is 1-A.
 Alpha  occ. eigenvalues --  -20.60930 -20.60915 -15.85956 -11.31291 -11.27856
 Alpha  occ. eigenvalues --  -11.27852 -11.27594 -11.26865 -11.26856 -11.20536
 Alpha  occ. eigenvalues --  -11.20099 -11.20091 -11.19987 -11.19960 -11.19898
 Alpha  occ. eigenvalues --   -1.59987  -1.39543  -1.19461  -1.08863  -1.07123
 Alpha  occ. eigenvalues --   -1.04858  -1.02297  -0.95703  -0.94801  -0.86258
 Alpha  occ. eigenvalues --   -0.85821  -0.82540  -0.78337  -0.77587  -0.76871
 Alpha  occ. eigenvalues --   -0.72173  -0.71301  -0.70569  -0.65116  -0.64861
 Alpha  occ. eigenvalues --   -0.63768  -0.62206  -0.59707  -0.58160  -0.56381
 Alpha  occ. eigenvalues --   -0.55362  -0.54111  -0.53190  -0.52950  -0.51534
 Alpha  occ. eigenvalues --   -0.51213  -0.49005  -0.48934  -0.48739  -0.46639
 Alpha  occ. eigenvalues --   -0.45353  -0.44979  -0.44391  -0.44280  -0.42543
 Alpha  occ. eigenvalues --   -0.37440  -0.36461
 Alpha virt. eigenvalues --    0.04937   0.11194   0.16429   0.21323   0.24088
 Alpha virt. eigenvalues --    0.25415   0.27244   0.27952   0.28132   0.28913
 Alpha virt. eigenvalues --    0.29159   0.30906   0.32336   0.32534   0.32995

 Mulliken charges:
               1
     1  C   -0.170647
     2  C   -0.218587
     3  C   -0.170644
     4  C    0.157714
     5  C   -0.170926
     6  C   -0.218534
     7  H    0.225970
     8  H    0.223795
     9  H    0.275865
    10  H    0.275722
    11  H    0.223823
    12  N    0.490649
    13  O   -0.461054
    14  O   -0.459592
    15  C   -0.298959
    16  C   -0.299009
    17  C   -0.475347
    18  H    0.144908
    19  H    0.142598
    20  H    0.173786
    21  H    0.149976
    22  H    0.148862
    23  H    0.151177
    24  H    0.156079
    25  C   -0.297081
    26  C   -0.299024
    27  C   -0.474564
    28  H    0.159900
    29  H    0.149372
    30  H    0.148999
    31  H    0.147634
    32  H    0.154279
    33  H    0.157490
    34  H    0.155370
 Sum of Mulliken charges =  -0.00000

 Dipole moment (field-independent basis, Debye):
    X=             -5.3330    Y=              0.4728    Z=             -1.3373  Tot=              5.5184
 Quadrupole moment (field-independent basis, Debye-Ang):
   XX=            -69.9309   YY=            -92.1471   ZZ=            -95.2250
   XY=             -0.0332   XZ=              3.7491   YZ=              0.7804

 Normal termination of Gaussian 16 at Wed May  5 16:08:33 2021.
