 Gaussian 16, Revision A.03,
 Gaussian 16:  EM64L-G16RevA.03 25-Dec-2016

 -------------
 #p 6-31g* mp2
 -------------

 ------------------------------------------------------
 Input file generated by CHIRIPA (05-May-2021 14:51:11)
 ------------------------------------------------------
 Symbolic Z-matrix:
 Charge =  0 Multiplicity = 1

                         Standard orientation:
 ---------------------------------------------------------------------
 Center     Atomic      Atomic             Coordinates (Angstroms)
 Number     Number       Type             X           Y           Z
 ---------------------------------------------------------------------
      1          6           0       -2.587365    0.337783    0.087616
      2          6           0       -2.675227    0.831506   -1.356857
      3          6           0       -3.315417    2.215340   -1.470683
      4          1           0       -3.596108    0.313556    0.522121
      5          1           0       -2.009074    1.060197    0.680148
      6          1           0       -3.252005    0.107685   -1.946794
      7          1           0       -1.666179    0.854378   -1.788034
      8          1           0       -2.737800    2.954617   -0.906387
      9          1           0       -4.332637    2.203680   -1.066049
     10          1           0       -3.368227    2.548850   -2.511760
     11          6           0       -1.949637   -1.044282    0.217716
     12          6           0       -1.861774   -1.538006    1.662189
     13          6           0       -1.221585   -2.921839    1.776016
     14          1           0       -2.527927   -1.766697   -0.374815
     15          1           0       -0.940893   -1.020056   -0.216788
     16          1           0       -2.870823   -1.560878    2.093366
     17          1           0       -1.284997   -0.814184    2.252126
     18          1           0       -0.204365   -2.910180    1.371381
     19          1           0       -1.799201   -3.661116    1.211719
     20          1           0       -1.168774   -3.255350    2.817093
     21          6           0        2.537343   -0.356367   -0.239848
     22          6           0        2.093833   -1.016646   -1.545725
     23          6           0        2.639679   -2.435891   -1.705686
     24          1           0        3.635078   -0.335042   -0.201541
     25          1           0        2.207014   -0.974786    0.606224
     26          1           0        2.423698   -0.396454   -2.389032
     27          1           0        0.997025   -1.036228   -1.581014
     28          1           0        2.299656   -3.074315   -0.883859
     29          1           0        3.734436   -2.430906   -1.696469
     30          1           0        2.310384   -2.889073   -2.645926
     31          6           0        1.999658    1.062866   -0.065485
     32          6           0        2.443169    1.723144    1.240393
     33          6           0        1.897322    3.142391    1.400354
     34          1           0        2.329987    1.681284   -0.911556
     35          1           0        0.901923    1.041542   -0.103792
     36          1           0        3.539977    1.742726    1.275681
     37          1           0        2.113304    1.102953    2.083699
     38          1           0        0.802566    3.137405    1.391136
     39          1           0        2.237345    3.780815    0.578527
     40          1           0        2.226617    3.595572    2.340593
 ---------------------------------------------------------------------

 SCF Done:  E(RHF) =  -470.733244709     A.U. after   11 cycles
 E2 =    -0.1584793553D+01 EUMP2 =    -0.47231803826196D+03

 The electronic state is 1-A.
 Alpha  occ. eigenvalues --  -11.21671 -11.21670 -11.21644 -11.21636 -11.21483
 Alpha  occ. eigenvalues --  -11.21461 -11.21424 -11.21400 -11.21146 -11.21138
 Alpha  occ. eigenvalues --  -11.21107 -11.21089  -1.08550  -1.08450  -1.03600
 Alpha  occ. eigenvalues --   -1.03571  -0.96046  -0.96025  -0.87066  -0.87036
 Alpha  occ. eigenvalues --   -0.79662  -0.79638  -0.78405  -0.78230  -0.65533
 Alpha  occ. eigenvalues --   -0.64759  -0.61091  -0.60884  -0.59409  -0.59394
 Alpha  occ. eigenvalues --   -0.57654  -0.57635  -0.55385  -0.55271  -0.52738
 Alpha  occ. eigenvalues --   -0.52714  -0.52475  -0.52447  -0.50054  -0.49918
 Alpha  occ. eigenvalues --   -0.48043  -0.47911  -0.46773  -0.46677  -0.46264
 Alpha  occ. eigenvalues --   -0.45805  -0.45782  -0.45233  -0.43849  -0.43832
 Alpha virt. eigenvalues --    0.18323   0.21425   0.23467   0.24517   0.25532
 Alpha virt. eigenvalues --    0.25854   0.27211   0.27951   0.28474   0.30398
 Alpha virt. eigenvalues --    0.30881   0.31541   0.31889   0.31919   0.31984

 Mulliken charges:
               1
     1  C   -0.298647
     2  C   -0.302254
     3  C   -0.475622
     4  H    0.150299
     5  H    0.149257
     6  H    0.152144
     7  H    0.153902
     8  H    0.155326
     9  H    0.155233
    10  H    0.160553
    11  C   -0.309156
    12  C   -0.299047
    13  C   -0.477316
    14  H    0.149897
    15  H    0.159733
    16  H    0.152488
    17  H    0.151424
    18  H    0.155401
    19  H    0.155763
    20  H    0.160703
    21  C   -0.299508
    22  C   -0.306934
    23  C   -0.475983
    24  H    0.150502
    25  H    0.150111
    26  H    0.152415
    27  H    0.157804
    28  H    0.155537
    29  H    0.155437
    30  H    0.160757
    31  C   -0.303759
    32  C   -0.299600
    33  C   -0.475895
    34  H    0.150001
    35  H    0.153866
    36  H    0.152457
    37  H    0.151908
    38  H    0.154542
    39  H    0.155544
    40  H    0.160718
 Sum of Mulliken charges =  -0.00000

 Dipole moment (field-independent basis, Debye):
    X=              0.0037    Y=             -0.0023    Z=             -0.0157  Tot=              0.0163
 Quadrupole moment (field-independent basis, Debye-Ang):
   XX=            -83.4139   YY=            -86.4701   ZZ=            -84.6579
   XY=              1.5287   XZ=             -0.3319   YZ=             -0.1569

 Normal termination of Gaussian 16 at Thu May  6 02:16:10 2021.
