 Gaussian 16, Revision A.03,
 Gaussian 16:  EM64L-G16RevA.03 25-Dec-2016

 -------------
 #p 6-31g* mp2
 -------------

 ------------------------------------------------------
 Input file generated by CHIRIPA (05-May-2021 14:53:16)
 ------------------------------------------------------
 Symbolic Z-matrix:
 Charge =  0 Multiplicity = 1

                         Standard orientation:
 ---------------------------------------------------------------------
 Center     Atomic      Atomic             Coordinates (Angstroms)
 Number     Number       Type             X           Y           Z
 ---------------------------------------------------------------------
      1          6           0       -2.882755   -0.007711    0.063001
      2          6           0       -4.183638   -0.539724   -0.539203
      3          6           0       -4.244424   -2.067368   -0.559293
      4          1           0       -2.032559   -0.402418   -0.509989
      5          1           0       -2.775975   -0.393331    1.086373
      6          1           0       -4.288616   -0.152098   -1.560645
      7          1           0       -5.030845   -0.143551    0.035169
      8          1           0       -4.164916   -2.469456    0.455894
      9          1           0       -3.418470   -2.478052   -1.148987
     10          1           0       -5.182704   -2.426137   -0.993775
     11          6           0       -2.807087    1.517829    0.090024
     12          6           0       -1.506204    2.049842    0.692229
     13          6           0       -1.445419    3.577486    0.712318
     14          1           0       -2.913867    1.903449   -0.933348
     15          1           0       -3.657283    1.912536    0.663014
     16          1           0       -0.658997    1.653669    0.117856
     17          1           0       -1.401227    1.662217    1.713670
     18          1           0       -2.271373    3.988170    1.302013
     19          1           0       -1.524926    3.979574   -0.302869
     20          1           0       -0.507138    3.936255    1.146801
     21          6           0        0.581006   -2.338018    0.724542
     22          6           0        0.424547   -1.744757   -0.532471
     23          6           0        1.328063   -0.775072   -0.977349
     24          6           0        2.381298   -0.420887   -0.135600
     25          6           0        2.563989   -0.993743    1.122076
     26          6           0        1.648345   -1.961283    1.546355
     27          1           0       -0.125579   -3.090460    1.062134
     28          1           0       -0.403421   -2.035378   -1.172825
     29          1           0        1.230593   -0.299708   -1.945826
     30          1           0        3.399273   -0.683410    1.738039
     31          1           0        1.772333   -2.420332    2.523057
     32          7           0        3.344229    0.604539   -0.595670
     33          8           0        4.263750    0.899161    0.164801
     34          8           0        3.161220    1.094230   -1.708031
 ---------------------------------------------------------------------

 SCF Done:  E(RHF) =  -669.534519917     A.U. after   15 cycles
 E2 =    -0.2093813557D+01 EUMP2 =    -0.67162833347398D+03

 The electronic state is 1-A.
 Alpha  occ. eigenvalues --  -20.60803 -20.60797 -15.85857 -11.31243 -11.27804
 Alpha  occ. eigenvalues --  -11.27784 -11.27514 -11.26814 -11.26803 -11.22193
 Alpha  occ. eigenvalues --  -11.21924 -11.21860 -11.21709 -11.21646 -11.21041
 Alpha  occ. eigenvalues --   -1.59878  -1.39431  -1.19408  -1.08861  -1.08770
 Alpha  occ. eigenvalues --   -1.04820  -1.03912  -0.96377  -0.95626  -0.87396
 Alpha  occ. eigenvalues --   -0.86215  -0.82470  -0.79994  -0.78640  -0.77504
 Alpha  occ. eigenvalues --   -0.72074  -0.71201  -0.70495  -0.65555  -0.65057
 Alpha  occ. eigenvalues --   -0.64785  -0.62175  -0.61305  -0.59764  -0.57974
 Alpha  occ. eigenvalues --   -0.55700  -0.55293  -0.53256  -0.52980  -0.52943
 Alpha  occ. eigenvalues --   -0.52771  -0.50340  -0.48841  -0.48829  -0.48300
 Alpha  occ. eigenvalues --   -0.47030  -0.46142  -0.46064  -0.44831  -0.44150
 Alpha  occ. eigenvalues --   -0.37341  -0.36327
 Alpha virt. eigenvalues --    0.05004   0.11143   0.16411   0.19599   0.22928
 Alpha virt. eigenvalues --    0.23696   0.25381   0.26611   0.27379   0.28552
 Alpha virt. eigenvalues --    0.28998   0.29530   0.31247   0.31862   0.31888

 Mulliken charges:
               1
     1  C   -0.301034
     2  C   -0.299808
     3  C   -0.475570
     4  H    0.147608
     5  H    0.147281
     6  H    0.153341
     7  H    0.154791
     8  H    0.153911
     9  H    0.145924
    10  H    0.164572
    11  C   -0.298478
    12  C   -0.301483
    13  C   -0.476094
    14  H    0.150094
    15  H    0.150269
    16  H    0.154299
    17  H    0.150551
    18  H    0.153928
    19  H    0.156824
    20  H    0.163850
    21  C   -0.170569
    22  C   -0.215547
    23  C   -0.173286
    24  C    0.159700
    25  C   -0.170721
    26  C   -0.218319
    27  H    0.226590
    28  H    0.225212
    29  H    0.275563
    30  H    0.275713
    31  H    0.223625
    32  N    0.487997
    33  O   -0.460181
    34  O   -0.460554
 Sum of Mulliken charges =  -0.00000

 Dipole moment (field-independent basis, Debye):
    X=             -3.3737    Y=             -3.5637    Z=              1.6641  Tot=              5.1817
 Quadrupole moment (field-independent basis, Debye-Ang):
   XX=           -109.9805   YY=            -93.4707   ZZ=            -90.8747
   XY=             -7.7740   XZ=              6.4774   YZ=             -0.8591

 Normal termination of Gaussian 16 at Wed May  5 18:42:00 2021.
