 Gaussian 16, Revision A.03,
 Gaussian 16:  EM64L-G16RevA.03 25-Dec-2016

 -------------
 #p 6-31g* mp2
 -------------

 ------------------------------------------------------
 Input file generated by CHIRIPA (05-May-2021 14:51:10)
 ------------------------------------------------------
 Symbolic Z-matrix:
 Charge =  0 Multiplicity = 1

                         Standard orientation:
 ---------------------------------------------------------------------
 Center     Atomic      Atomic             Coordinates (Angstroms)
 Number     Number       Type             X           Y           Z
 ---------------------------------------------------------------------
      1          6           0       -4.087408    0.215718   -0.352262
      2          6           0       -5.371235    0.706118    0.318023
      3          6           0       -6.294680    1.450536   -0.646800
      4          1           0       -3.554744    1.074824   -0.782553
      5          1           0       -4.349002   -0.442537   -1.192301
      6          1           0       -5.107270    1.362148    1.157405
      7          1           0       -5.900809   -0.154232    0.746935
      8          1           0       -6.586788    0.801373   -1.478582
      9          1           0       -5.788741    2.326370   -1.065779
     10          1           0       -7.206320    1.792265   -0.146807
     11          6           0       -3.153981   -0.530379    0.599464
     12          6           0       -1.870155   -1.020779   -0.070822
     13          6           0       -0.946710   -1.765198    0.894002
     14          1           0       -2.892388    0.127875    1.439502
     15          1           0       -3.686646   -1.389485    1.029755
     16          1           0       -1.340581   -0.160429   -0.499733
     17          1           0       -2.134120   -1.676810   -0.910204
     18          1           0       -1.452649   -2.641031    1.312981
     19          1           0       -0.654601   -1.116035    1.725783
     20          1           0       -0.035069   -2.106926    0.394009
     21          6           0        3.894642    0.738371    0.289652
     22          6           0        3.795592    2.088191   -0.421797
     23          6           0        4.347653    3.240767    0.417603
     24          1           0        3.351201    0.792742    1.242888
     25          1           0        4.945990    0.540037    0.540100
     26          1           0        2.744915    2.283283   -0.672061
     27          1           0        4.339170    2.030542   -1.373540
     28          1           0        5.402908    3.072774    0.655964
     29          1           0        3.799595    3.326952    1.361429
     30          1           0        4.266969    4.196254   -0.110029
     31          6           0        3.346749   -0.423710   -0.536853
     32          6           0        3.445797   -1.773530    0.174595
     33          6           0        2.893737   -2.926105   -0.664805
     34          1           0        2.295400   -0.225376   -0.787302
     35          1           0        3.890188   -0.478081   -1.490090
     36          1           0        2.902220   -1.715880    1.126339
     37          1           0        4.496475   -1.968621    0.424860
     38          1           0        3.441795   -3.012291   -1.608630
     39          1           0        1.838482   -2.758112   -0.903165
     40          1           0        2.974421   -3.881593   -0.137173
 ---------------------------------------------------------------------

 SCF Done:  E(RHF) =  -470.733281021     A.U. after   11 cycles
 E2 =    -0.1582725048D+01 EUMP2 =    -0.47231600606853D+03

 The electronic state is 1-A.
 Alpha  occ. eigenvalues --  -11.21653 -11.21622 -11.21606 -11.21588 -11.21436
 Alpha  occ. eigenvalues --  -11.21401 -11.21376 -11.21341 -11.21099 -11.21086
 Alpha  occ. eigenvalues --  -11.21078 -11.21076  -1.08465  -1.08426  -1.03579
 Alpha  occ. eigenvalues --   -1.03518  -0.96036  -0.95962  -0.87049  -0.86980
 Alpha  occ. eigenvalues --   -0.79629  -0.79589  -0.78275  -0.78238  -0.65111
 Alpha  occ. eigenvalues --   -0.65055  -0.61025  -0.60945  -0.59389  -0.59313
 Alpha  occ. eigenvalues --   -0.57669  -0.57551  -0.55308  -0.55276  -0.52719
 Alpha  occ. eigenvalues --   -0.52676  -0.52476  -0.52334  -0.49966  -0.49903
 Alpha  occ. eigenvalues --   -0.47991  -0.47853  -0.46673  -0.46605  -0.45817
 Alpha  occ. eigenvalues --   -0.45779  -0.45753  -0.45686  -0.43807  -0.43772
 Alpha virt. eigenvalues --    0.20496   0.23105   0.23641   0.25058   0.26284
 Alpha virt. eigenvalues --    0.26710   0.26920   0.27569   0.27899   0.28903
 Alpha virt. eigenvalues --    0.30607   0.31349   0.31554   0.31708   0.32057

 Mulliken charges:
               1
     1  C   -0.298290
     2  C   -0.299682
     3  C   -0.475728
     4  H    0.149611
     5  H    0.149658
     6  H    0.151927
     7  H    0.152011
     8  H    0.155246
     9  H    0.155201
    10  H    0.160326
    11  C   -0.298339
    12  C   -0.299543
    13  C   -0.484204
    14  H    0.149496
    15  H    0.149898
    16  H    0.151394
    17  H    0.152187
    18  H    0.155726
    19  H    0.154767
    20  H    0.168465
    21  C   -0.298295
    22  C   -0.299593
    23  C   -0.475696
    24  H    0.149779
    25  H    0.149540
    26  H    0.151653
    27  H    0.151986
    28  H    0.155254
    29  H    0.155090
    30  H    0.160210
    31  C   -0.299040
    32  C   -0.300777
    33  C   -0.479580
    34  H    0.150066
    35  H    0.149604
    36  H    0.153619
    37  H    0.152115
    38  H    0.155542
    39  H    0.157723
    40  H    0.160671
 Sum of Mulliken charges =  -0.00000

 Dipole moment (field-independent basis, Debye):
    X=             -0.0014    Y=             -0.0127    Z=              0.0024  Tot=              0.0130
 Quadrupole moment (field-independent basis, Debye-Ang):
   XX=            -84.3773   YY=            -85.1473   ZZ=            -85.1456
   XY=              0.3673   XZ=             -0.8738   YZ=              0.1366

 Normal termination of Gaussian 16 at Thu May  6 00:38:36 2021.
