 Gaussian 16, Revision A.03,
 Gaussian 16:  EM64L-G16RevA.03 25-Dec-2016

 -------------
 #p 6-31g* mp2
 -------------

 ------------------------------------------------------
 Input file generated by CHIRIPA (05-May-2021 14:51:11)
 ------------------------------------------------------
 Symbolic Z-matrix:
 Charge =  0 Multiplicity = 1

                         Standard orientation:
 ---------------------------------------------------------------------
 Center     Atomic      Atomic             Coordinates (Angstroms)
 Number     Number       Type             X           Y           Z
 ---------------------------------------------------------------------
      1          6           0        2.975349    0.370478   -0.984034
      2          6           0        1.970009    1.435920   -0.545730
      3          6           0        1.233636    2.074163   -1.723947
      4          1           0        3.703132    0.822895   -1.671489
      5          1           0        2.449151   -0.407881   -1.553831
      6          1           0        2.497714    2.211331    0.024254
      7          1           0        1.244647    0.980959    0.140912
      8          1           0        0.682054    1.316322   -2.289663
      9          1           0        1.942240    2.553684   -2.406984
     10          1           0        0.519967    2.832857   -1.387911
     11          6           0        3.719466   -0.276747    0.182636
     12          6           0        4.724806   -1.342189   -0.255668
     13          6           0        5.461179   -1.980432    0.922549
     14          1           0        4.245664    0.501612    0.752433
     15          1           0        2.991682   -0.729164    0.870091
     16          1           0        5.450167   -0.887228   -0.942310
     17          1           0        4.197101   -2.117599   -0.825652
     18          1           0        4.752574   -2.459953    1.605586
     19          1           0        6.012761   -1.222591    1.488265
     20          1           0        6.174847   -2.739126    0.586513
     21          6           0       -3.604966   -0.703721    0.108063
     22          6           0       -5.062655   -0.633951   -0.348295
     23          6           0       -5.563454   -1.955682   -0.931408
     24          1           0       -2.974171   -0.992759   -0.743700
     25          1           0       -3.500668   -1.499549    0.858513
     26          1           0       -5.164445    0.162431   -1.096646
     27          1           0       -5.690029   -0.344859    0.504609
     28          1           0       -5.490754   -2.756601   -0.188546
     29          1           0       -4.962184   -2.246429   -1.798900
     30          1           0       -6.607648   -1.883358   -1.251234
     31          6           0       -3.089848    0.609990    0.693335
     32          6           0       -1.632160    0.540219    1.149692
     33          6           0       -1.131361    1.861950    1.732806
     34          1           0       -3.194147    1.405818   -0.057114
     35          1           0       -3.720643    0.899027    1.545099
     36          1           0       -1.004786    0.251128    0.296790
     37          1           0       -1.530370   -0.256162    1.898045
     38          1           0       -1.732631    2.152697    2.600298
     39          1           0       -1.204060    2.662869    0.989945
     40          1           0       -0.087167    1.789627    2.052632
 ---------------------------------------------------------------------

 SCF Done:  E(RHF) =  -470.732511258     A.U. after   11 cycles
 E2 =    -0.1583819048D+01 EUMP2 =    -0.47231633030537D+03

 The electronic state is 1-A.
 Alpha  occ. eigenvalues --  -11.21624 -11.21616 -11.21593 -11.21511 -11.21425
 Alpha  occ. eigenvalues --  -11.21387 -11.21366 -11.21326 -11.21085 -11.21082
 Alpha  occ. eigenvalues --  -11.21065 -11.21057  -1.08472  -1.08395  -1.03616
 Alpha  occ. eigenvalues --   -1.03455  -0.96043  -0.95928  -0.87015  -0.86985
 Alpha  occ. eigenvalues --   -0.79628  -0.79576  -0.78303  -0.78197  -0.65227
 Alpha  occ. eigenvalues --   -0.64940  -0.61247  -0.60702  -0.59491  -0.59199
 Alpha  occ. eigenvalues --   -0.57701  -0.57483  -0.55359  -0.55149  -0.52716
 Alpha  occ. eigenvalues --   -0.52644  -0.52480  -0.52347  -0.49929  -0.49909
 Alpha  occ. eigenvalues --   -0.47966  -0.47860  -0.46799  -0.46481  -0.45888
 Alpha  occ. eigenvalues --   -0.45774  -0.45733  -0.45498  -0.43812  -0.43751
 Alpha virt. eigenvalues --    0.20730   0.23144   0.23508   0.25194   0.26070
 Alpha virt. eigenvalues --    0.26579   0.26614   0.27499   0.27910   0.29211
 Alpha virt. eigenvalues --    0.30205   0.31265   0.31436   0.32082   0.32649

 Mulliken charges:
               1
     1  C   -0.297582
     2  C   -0.308833
     3  C   -0.476843
     4  H    0.149375
     5  H    0.148836
     6  H    0.151501
     7  H    0.163539
     8  H    0.153997
     9  H    0.155417
    10  H    0.161086
    11  C   -0.298393
    12  C   -0.299578
    13  C   -0.475721
    14  H    0.149433
    15  H    0.149494
    16  H    0.151955
    17  H    0.151915
    18  H    0.155173
    19  H    0.155148
    20  H    0.160228
    21  C   -0.298373
    22  C   -0.299696
    23  C   -0.475723
    24  H    0.149435
    25  H    0.149436
    26  H    0.152099
    27  H    0.152013
    28  H    0.155152
    29  H    0.155144
    30  H    0.160349
    31  C   -0.297686
    32  C   -0.305017
    33  C   -0.478674
    34  H    0.149887
    35  H    0.149773
    36  H    0.155564
    37  H    0.151707
    38  H    0.155685
    39  H    0.156320
    40  H    0.162458
 Sum of Mulliken charges =  -0.00000

 Dipole moment (field-independent basis, Debye):
    X=             -0.0170    Y=              0.0087    Z=              0.0177  Tot=              0.0260
 Quadrupole moment (field-independent basis, Debye-Ang):
   XX=            -84.8654   YY=            -85.2845   ZZ=            -84.7019
   XY=              0.5090   XZ=             -0.9843   YZ=             -0.2917

 Normal termination of Gaussian 16 at Thu May  6 07:00:59 2021.
