 Gaussian 16, Revision A.03,
 Gaussian 16:  EM64L-G16RevA.03 25-Dec-2016

 -------------
 #p 6-31g* mp2
 -------------

 ------------------------------------------------------
 Input file generated by CHIRIPA (05-May-2021 14:57:26)
 ------------------------------------------------------
 Symbolic Z-matrix:
 Charge =  0 Multiplicity = 1

                         Standard orientation:
 ---------------------------------------------------------------------
 Center     Atomic      Atomic             Coordinates (Angstroms)
 Number     Number       Type             X           Y           Z
 ---------------------------------------------------------------------
      1          6           0        3.295651   -2.271570    0.649543
      2          6           0        4.590725   -1.934900    0.242162
      3          6           0        4.905841   -0.617961   -0.105573
      4          6           0        3.896930    0.341353   -0.034116
      5          6           0        2.597267    0.037171    0.367928
      6          6           0        2.304802   -1.286197    0.711017
      7          1           0        3.059660   -3.297097    0.917867
      8          1           0        5.362239   -2.698079    0.193476
      9          1           0        5.900194   -0.329748   -0.424341
     10          1           0        1.849335    0.819813    0.406512
     11          1           0        1.298166   -1.544768    1.027039
     12          7           0        4.218539    1.738940   -0.399789
     13          8           0        3.311829    2.565635   -0.328436
     14          8           0        5.371236    1.981212   -0.750831
     15          6           0       -5.297316    1.907569    0.396820
     16          6           0       -4.074090    1.773981    1.061946
     17          6           0       -3.260662    0.659740    0.835338
     18          6           0       -3.703416   -0.306162   -0.067042
     19          6           0       -4.916910   -0.201602   -0.745120
     20          6           0       -5.714087    0.921090   -0.503004
     21          1           0       -5.922894    2.776420    0.578877
     22          1           0       -3.747875    2.538526    1.761303
     23          1           0       -2.309061    0.531143    1.336673
     24          1           0       -5.215283   -0.980258   -1.436559
     25          1           0       -6.663576    1.022196   -1.020973
     26          7           0       -2.850879   -1.490232   -0.315151
     27          8           0       -3.263584   -2.327248   -1.114973
     28          8           0       -1.786097   -1.558871    0.294904
 ---------------------------------------------------------------------

 SCF Done:  E(RHF) =  -868.339927074     A.U. after   16 cycles
 E2 =    -0.2598244338D+01 EUMP2 =    -0.87093817141130D+03

 The electronic state is 1-A.
 Alpha  occ. eigenvalues --  -20.61507 -20.61448 -20.60333 -20.60325 -15.86526
 Alpha  occ. eigenvalues --  -15.85375 -11.31640 -11.30550 -11.28203 -11.28158
 Alpha  occ. eigenvalues --  -11.27853 -11.27129 -11.27118 -11.27097 -11.27032
 Alpha  occ. eigenvalues --  -11.26713 -11.26093 -11.25861  -1.60539  -1.59409
 Alpha  occ. eigenvalues --   -1.40106  -1.38969  -1.19783  -1.18674  -1.09219
 Alpha  occ. eigenvalues --   -1.08097  -1.05151  -1.04031  -0.96100  -0.94976
 Alpha  occ. eigenvalues --   -0.86561  -0.85432  -0.82950  -0.81804  -0.78027
 Alpha  occ. eigenvalues --   -0.76885  -0.72766  -0.71841  -0.71600  -0.70891
 Alpha  occ. eigenvalues --   -0.70727  -0.69779  -0.65443  -0.65148  -0.64314
 Alpha  occ. eigenvalues --   -0.63987  -0.62509  -0.61370  -0.55651  -0.54523
 Alpha  occ. eigenvalues --   -0.53487  -0.53241  -0.52389  -0.52087  -0.49524
 Alpha  occ. eigenvalues --   -0.49468  -0.48367  -0.48333  -0.45564  -0.44418
 Alpha  occ. eigenvalues --   -0.37738  -0.36740  -0.36638  -0.35629
 Alpha virt. eigenvalues --    0.04500   0.05614   0.10917   0.12025   0.16048
 Alpha virt. eigenvalues --    0.17178   0.20911   0.22232   0.26683   0.27361
 Alpha virt. eigenvalues --    0.28688   0.29012   0.30772   0.31654   0.32539

 Mulliken charges:
               1
     1  C   -0.171907
     2  C   -0.218414
     3  C   -0.172943
     4  C    0.158359
     5  C   -0.172988
     6  C   -0.222449
     7  H    0.227177
     8  H    0.221199
     9  H    0.272938
    10  H    0.270904
    11  H    0.244093
    12  N    0.488330
    13  O   -0.463819
    14  O   -0.462088
    15  C   -0.169815
    16  C   -0.217723
    17  C   -0.169716
    18  C    0.158414
    19  C   -0.170357
    20  C   -0.218249
    21  H    0.227988
    22  H    0.226054
    23  H    0.270807
    24  H    0.276294
    25  H    0.225238
    26  N    0.493485
    27  O   -0.456136
    28  O   -0.474676
 Sum of Mulliken charges =  -0.00000

 Dipole moment (field-independent basis, Debye):
    X=             -4.5733    Y=             -0.8222    Z=              2.1633  Tot=              5.1255
 Quadrupole moment (field-independent basis, Debye-Ang):
   XX=            -84.9340   YY=           -110.7500   ZZ=           -104.0315
   XY=            -35.1688   XZ=              3.7089   YZ=              1.7849

 Normal termination of Gaussian 16 at Thu May  6 22:55:21 2021.
