 Gaussian 16, Revision A.03,
 Gaussian 16:  EM64L-G16RevA.03 25-Dec-2016

 -------------
 #p 6-31g* mp2
 -------------

 ------------------------------------------------------
 Input file generated by CHIRIPA (05-May-2021 14:53:15)
 ------------------------------------------------------
 Symbolic Z-matrix:
 Charge =  0 Multiplicity = 1

                         Standard orientation:
 ---------------------------------------------------------------------
 Center     Atomic      Atomic             Coordinates (Angstroms)
 Number     Number       Type             X           Y           Z
 ---------------------------------------------------------------------
      1          6           0       -4.020621   -0.053452    0.431349
      2          6           0       -5.247258   -0.666692   -0.244879
      3          6           0       -5.761440   -1.911084    0.479620
      4          1           0       -3.222354   -0.806605    0.481094
      5          1           0       -4.272994    0.203562    1.469447
      6          1           0       -4.993053   -0.921202   -1.281808
      7          1           0       -6.042632    0.088067   -0.293193
      8          1           0       -6.042155   -1.668711    1.509695
      9          1           0       -4.986612   -2.683714    0.515464
     10          1           0       -6.638583   -2.333206   -0.020673
     11          6           0       -3.494896    1.191329   -0.281293
     12          6           0       -2.268259    1.804569    0.394935
     13          6           0       -1.754077    3.048961   -0.329564
     14          1           0       -3.242523    0.934315   -1.319391
     15          1           0       -4.293163    1.944482   -0.331038
     16          1           0       -1.472885    1.049810    0.443249
     17          1           0       -2.522464    2.059079    1.431864
     18          1           0       -2.528905    3.821591   -0.365408
     19          1           0       -1.473362    2.806588   -1.359639
     20          1           0       -0.876934    3.471083    0.170729
     21          6           0        1.135442   -2.165060   -0.464122
     22          6           0        0.842097   -0.802865   -0.586176
     23          6           0        1.831765    0.159249   -0.363816
     24          6           0        3.109796   -0.278144   -0.019413
     25          6           0        3.433116   -1.627966    0.109948
     26          6           0        2.427736   -2.572544   -0.117061
     27          1           0        0.360541   -2.905641   -0.638663
     28          1           0       -0.160637   -0.483502   -0.855580
     29          1           0        1.632068    1.220312   -0.451463
     30          1           0        4.441963   -1.915716    0.379850
     31          1           0        2.658424   -3.629761   -0.021555
     32          7           0        4.165830    0.731120    0.218451
     33          8           0        5.283949    0.319936    0.520733
     34          8           0        3.855433    1.914254    0.098103
 ---------------------------------------------------------------------

 SCF Done:  E(RHF) =  -669.535430695     A.U. after   15 cycles
 E2 =    -0.2091736454D+01 EUMP2 =    -0.67162716714854D+03

 The electronic state is 1-A.
 Alpha  occ. eigenvalues --  -20.60762 -20.60757 -15.85817 -11.31190 -11.27772
 Alpha  occ. eigenvalues --  -11.27759 -11.27516 -11.26784 -11.26760 -11.22374
 Alpha  occ. eigenvalues --  -11.22259 -11.22170 -11.22110 -11.21711 -11.21668
 Alpha  occ. eigenvalues --   -1.59838  -1.39391  -1.19370  -1.09179  -1.08763
 Alpha  occ. eigenvalues --   -1.04778  -1.04225  -0.96662  -0.95595  -0.87672
 Alpha  occ. eigenvalues --   -0.86173  -0.82432  -0.80285  -0.78986  -0.77471
 Alpha  occ. eigenvalues --   -0.72035  -0.71161  -0.70478  -0.65894  -0.65022
 Alpha  occ. eigenvalues --   -0.64754  -0.62230  -0.61525  -0.60014  -0.58263
 Alpha  occ. eigenvalues --   -0.55962  -0.55275  -0.53327  -0.53108  -0.53079
 Alpha  occ. eigenvalues --   -0.52870  -0.50604  -0.48800  -0.48788  -0.48579
 Alpha  occ. eigenvalues --   -0.47333  -0.46510  -0.46457  -0.44794  -0.44481
 Alpha  occ. eigenvalues --   -0.37351  -0.36364
 Alpha virt. eigenvalues --    0.05046   0.11235   0.16420   0.18775   0.22726
 Alpha virt. eigenvalues --    0.23475   0.25317   0.26250   0.26713   0.28664
 Alpha virt. eigenvalues --    0.29535   0.30031   0.31141   0.31242   0.32241

 Mulliken charges:
               1
     1  C   -0.297411
     2  C   -0.300116
     3  C   -0.475578
     4  H    0.142722
     5  H    0.153296
     6  H    0.150789
     7  H    0.154745
     8  H    0.157207
     9  H    0.152744
    10  H    0.162261
    11  C   -0.299726
    12  C   -0.305511
    13  C   -0.479223
    14  H    0.146097
    15  H    0.154246
    16  H    0.145828
    17  H    0.157887
    18  H    0.160150
    19  H    0.152342
    20  H    0.166140
    21  C   -0.171406
    22  C   -0.221691
    23  C   -0.172552
    24  C    0.158510
    25  C   -0.170626
    26  C   -0.218610
    27  H    0.225527
    28  H    0.227879
    29  H    0.277532
    30  H    0.275720
    31  H    0.223494
    32  N    0.488087
    33  O   -0.460482
    34  O   -0.460269
 Sum of Mulliken charges =  -0.00000

 Dipole moment (field-independent basis, Debye):
    X=             -3.8609    Y=             -3.4646    Z=             -0.7796  Tot=              5.2457
 Quadrupole moment (field-independent basis, Debye-Ang):
   XX=           -115.2146   YY=            -90.4203   ZZ=            -95.2477
   XY=            -13.9541   XZ=             -2.1510   YZ=              0.2994

 Normal termination of Gaussian 16 at Thu May  6 07:27:15 2021.
