 Gaussian 16, Revision A.03,
 Gaussian 16:  EM64L-G16RevA.03 25-Dec-2016

 -------------
 #p 6-31g* mp2
 -------------

 ------------------------------------------------------
 Input file generated by CHIRIPA (05-May-2021 14:51:10)
 ------------------------------------------------------
 Symbolic Z-matrix:
 Charge =  0 Multiplicity = 1

                         Standard orientation:
 ---------------------------------------------------------------------
 Center     Atomic      Atomic             Coordinates (Angstroms)
 Number     Number       Type             X           Y           Z
 ---------------------------------------------------------------------
      1          6           0        1.933822   -0.790773    0.319021
      2          6           0        1.688429   -1.830389    1.413081
      3          6           0        0.201799   -2.084858    1.664019
      4          1           0        1.441458    0.150459    0.599387
      5          1           0        1.456460   -1.128170   -0.611400
      6          1           0        2.167289   -1.491790    2.340799
      7          1           0        2.181596   -2.769198    1.130169
      8          1           0       -0.286271   -2.446430    0.753165
      9          1           0       -0.300658   -1.161765    1.970673
     10          1           0        0.049300   -2.831277    2.449807
     11          6           0        3.415220   -0.525532    0.056656
     12          6           0        3.660612    0.514083   -1.037404
     13          6           0        5.147243    0.768553   -1.288341
     14          1           0        3.892581   -0.188135    0.987078
     15          1           0        3.907584   -1.466764   -0.223710
     16          1           0        3.167445    1.452893   -0.754491
     17          1           0        3.181752    0.175485   -1.965122
     18          1           0        5.649699   -0.154540   -1.594996
     19          1           0        5.635312    1.130125   -0.377487
     20          1           0        5.299742    1.514971   -2.074130
     21          6           0       -2.657006    0.006599   -0.586088
     22          6           0       -4.001632   -0.720675   -0.618356
     23          6           0       -3.950598   -2.022371   -1.418841
     24          1           0       -2.337856    0.219778   -1.615478
     25          1           0       -1.897524   -0.660399   -0.155164
     26          1           0       -4.758646   -0.052012   -1.047816
     27          1           0       -4.317709   -0.931977    0.411237
     28          1           0       -3.216104   -2.710755   -0.988438
     29          1           0       -3.659546   -1.825791   -2.455781
     30          1           0       -4.922319   -2.525878   -1.428848
     31          6           0       -2.692035    1.309706    0.210411
     32          6           0       -1.347409    2.036980    0.242679
     33          6           0       -1.398443    3.338676    1.043163
     34          1           0       -3.451517    1.976705   -0.220513
     35          1           0       -3.011185    1.096527    1.239801
     36          1           0       -1.031332    2.248282   -0.786914
     37          1           0       -0.590395    1.368318    0.672139
     38          1           0       -1.689495    3.142096    2.080104
     39          1           0       -2.132937    4.027061    0.612761
     40          1           0       -0.426723    3.842183    1.053170
 ---------------------------------------------------------------------

 SCF Done:  E(RHF) =  -470.732615549     A.U. after   11 cycles
 E2 =    -0.1584483820D+01 EUMP2 =    -0.47231709936895D+03

 The electronic state is 1-A.
 Alpha  occ. eigenvalues --  -11.21668 -11.21605 -11.21551 -11.21530 -11.21418
 Alpha  occ. eigenvalues --  -11.21358 -11.21331 -11.21223 -11.21189 -11.21076
 Alpha  occ. eigenvalues --  -11.21069 -11.21036  -1.08477  -1.08356  -1.03579
 Alpha  occ. eigenvalues --   -1.03489  -0.96039  -0.95928  -0.87061  -0.86944
 Alpha  occ. eigenvalues --   -0.79661  -0.79558  -0.78409  -0.78035  -0.65163
 Alpha  occ. eigenvalues --   -0.64958  -0.61061  -0.60814  -0.59402  -0.59302
 Alpha  occ. eigenvalues --   -0.57702  -0.57499  -0.55339  -0.55212  -0.52727
 Alpha  occ. eigenvalues --   -0.52637  -0.52535  -0.52301  -0.49983  -0.49879
 Alpha  occ. eigenvalues --   -0.48070  -0.47917  -0.46849  -0.46508  -0.46181
 Alpha  occ. eigenvalues --   -0.45686  -0.45673  -0.45021  -0.43822  -0.43724
 Alpha virt. eigenvalues --    0.20536   0.22817   0.23397   0.24193   0.26016
 Alpha virt. eigenvalues --    0.26594   0.26695   0.27400   0.27988   0.29992
 Alpha virt. eigenvalues --    0.30606   0.31481   0.31796   0.31939   0.32293

 Mulliken charges:
               1
     1  C   -0.305826
     2  C   -0.299416
     3  C   -0.480777
     4  H    0.156896
     5  H    0.150295
     6  H    0.151947
     7  H    0.152307
     8  H    0.157322
     9  H    0.157073
    10  H    0.161065
    11  C   -0.297625
    12  C   -0.299675
    13  C   -0.475743
    14  H    0.149335
    15  H    0.149655
    16  H    0.152175
    17  H    0.152097
    18  H    0.155177
    19  H    0.155141
    20  H    0.160287
    21  C   -0.306723
    22  C   -0.299054
    23  C   -0.476067
    24  H    0.148610
    25  H    0.159769
    26  H    0.151494
    27  H    0.151876
    28  H    0.154901
    29  H    0.154869
    30  H    0.160160
    31  C   -0.297222
    32  C   -0.308877
    33  C   -0.475139
    34  H    0.149283
    35  H    0.148854
    36  H    0.152158
    37  H    0.159768
    38  H    0.154711
    39  H    0.155443
    40  H    0.159479
 Sum of Mulliken charges =  -0.00000

 Dipole moment (field-independent basis, Debye):
    X=              0.0454    Y=             -0.0283    Z=              0.0109  Tot=              0.0546
 Quadrupole moment (field-independent basis, Debye-Ang):
   XX=            -85.9613   YY=            -85.0346   ZZ=            -83.9603
   XY=             -0.5387   XZ=              0.4176   YZ=             -0.3920

 Normal termination of Gaussian 16 at Wed May  5 16:42:45 2021.
