 Gaussian 16, Revision A.03,
 Gaussian 16:  EM64L-G16RevA.03 25-Dec-2016

 -------------
 #p 6-31g* mp2
 -------------

 ------------------------------------------------------
 Input file generated by CHIRIPA (05-May-2021 14:55:22)
 ------------------------------------------------------
 Symbolic Z-matrix:
 Charge =  0 Multiplicity = 1

                         Standard orientation:
 ---------------------------------------------------------------------
 Center     Atomic      Atomic             Coordinates (Angstroms)
 Number     Number       Type             X           Y           Z
 ---------------------------------------------------------------------
      1          6           0       -1.067284   -2.468992    0.699930
      2          6           0       -1.804469   -2.303384   -0.477207
      3          6           0       -2.360810   -1.061500   -0.797765
      4          6           0       -2.159384   -0.001993    0.085502
      5          6           0       -1.429867   -0.135418    1.265880
      6          6           0       -0.882661   -1.386388    1.566190
      7          1           0       -0.638654   -3.437246    0.941083
      8          1           0       -1.949467   -3.142380   -1.151823
      9          1           0       -2.935889   -0.905433   -1.702389
     10          1           0       -1.302363    0.719566    1.918693
     11          1           0       -0.310612   -1.512081    2.481070
     12          7           0       -2.743522    1.317544   -0.243140
     13          8           0       -2.551683    2.235243    0.551633
     14          8           0       -3.382147    1.409113   -1.289281
     15          6           0        3.006598    0.946925   -0.101006
     16          6           0        2.066583    2.151191   -0.036951
     17          6           0        2.813276    3.476340    0.118683
     18          1           0        3.619412    0.919286    0.810389
     19          1           0        3.702166    1.077834   -0.941506
     20          1           0        1.372095    2.017391    0.802335
     21          1           0        1.455802    2.175856   -0.948517
     22          1           0        3.493716    3.636382   -0.723925
     23          1           0        3.409536    3.477016    1.036875
     24          1           0        2.122150    4.323865    0.162349
     25          6           0        2.274968   -0.385086   -0.256541
     26          6           0        3.214982   -1.589352   -0.320595
     27          6           0        2.468289   -2.914502   -0.476229
     28          1           0        1.579399   -0.515996    0.583960
     29          1           0        1.662153   -0.357448   -1.167935
     30          1           0        3.825764   -1.614018    0.590971
     31          1           0        3.909470   -1.455553   -1.159881
     32          1           0        1.872030   -2.915178   -1.394421
     33          1           0        1.787849   -3.074543    0.366379
     34          1           0        3.159416   -3.762027   -0.519895
 ---------------------------------------------------------------------

 SCF Done:  E(RHF) =  -669.533574205     A.U. after   15 cycles
 E2 =    -0.2095334636D+01 EUMP2 =    -0.67162890884123D+03

 The electronic state is 1-A.
 Alpha  occ. eigenvalues --  -20.60795 -20.60789 -15.85848 -11.31228 -11.27806
 Alpha  occ. eigenvalues --  -11.27800 -11.27520 -11.26808 -11.26792 -11.21978
 Alpha  occ. eigenvalues --  -11.21700 -11.21543 -11.21468 -11.21409 -11.20912
 Alpha  occ. eigenvalues --   -1.59868  -1.39422  -1.19410  -1.08817  -1.08565
 Alpha  occ. eigenvalues --   -1.04824  -1.03711  -0.96178  -0.95624  -0.87201
 Alpha  occ. eigenvalues --   -0.86217  -0.82469  -0.79790  -0.78374  -0.77505
 Alpha  occ. eigenvalues --   -0.72068  -0.71188  -0.70533  -0.65256  -0.65064
 Alpha  occ. eigenvalues --   -0.64818  -0.62166  -0.61131  -0.59554  -0.57769
 Alpha  occ. eigenvalues --   -0.55624  -0.55197  -0.53268  -0.52918  -0.52828
 Alpha  occ. eigenvalues --   -0.52587  -0.50142  -0.48828  -0.48821  -0.48073
 Alpha  occ. eigenvalues --   -0.46832  -0.45865  -0.45850  -0.44816  -0.43927
 Alpha  occ. eigenvalues --   -0.37289  -0.36305
 Alpha virt. eigenvalues --    0.04984   0.11077   0.16377   0.20404   0.23001
 Alpha virt. eigenvalues --    0.23948   0.25962   0.26541   0.26944   0.28332
 Alpha virt. eigenvalues --    0.28763   0.30322   0.31128   0.31475   0.32053

 Mulliken charges:
               1
     1  C   -0.163846
     2  C   -0.219662
     3  C   -0.171216
     4  C    0.159669
     5  C   -0.167737
     6  C   -0.222669
     7  H    0.226748
     8  H    0.223927
     9  H    0.275703
    10  H    0.275651
    11  H    0.223392
    12  N    0.488174
    13  O   -0.460367
    14  O   -0.460562
    15  C   -0.298297
    16  C   -0.298843
    17  C   -0.476427
    18  H    0.147027
    19  H    0.149679
    20  H    0.149268
    21  H    0.155174
    22  H    0.154829
    23  H    0.152969
    24  H    0.165805
    25  C   -0.302607
    26  C   -0.299340
    27  C   -0.474073
    28  H    0.153072
    29  H    0.150480
    30  H    0.150412
    31  H    0.153745
    32  H    0.155221
    33  H    0.144473
    34  H    0.160227
 Sum of Mulliken charges =  -0.00000

 Dipole moment (field-independent basis, Debye):
    X=              1.9567    Y=             -4.5733    Z=              1.1088  Tot=              5.0963
 Quadrupole moment (field-independent basis, Debye-Ang):
   XX=           -104.1479   YY=            -95.6102   ZZ=            -90.2049
   XY=             10.7776   XZ=             -0.6720   YZ=              1.2074

 Normal termination of Gaussian 16 at Thu May  6 07:48:42 2021.
