 Gaussian 16, Revision A.03,
 Gaussian 16:  EM64L-G16RevA.03 25-Dec-2016

 -------------
 #p 6-31g* mp2
 -------------

 ------------------------------------------------------
 Input file generated by CHIRIPA (05-May-2021 14:57:27)
 ------------------------------------------------------
 Symbolic Z-matrix:
 Charge =  0 Multiplicity = 1

                         Standard orientation:
 ---------------------------------------------------------------------
 Center     Atomic      Atomic             Coordinates (Angstroms)
 Number     Number       Type             X           Y           Z
 ---------------------------------------------------------------------
      1          6           0        3.868399   -2.466950    0.014642
      2          6           0        3.216572   -1.897576   -1.084201
      3          6           0        2.912476   -0.533096   -1.100595
      4          6           0        3.276362    0.235949    0.003690
      5          6           0        3.926531   -0.302010    1.113272
      6          6           0        4.220677   -1.668757    1.107944
      7          1           0        4.100764   -3.527791    0.018940
      8          1           0        2.941795   -2.515039   -1.934661
      9          1           0        2.408505   -0.066432   -1.938244
     10          1           0        4.187868    0.339056    1.946432
     11          1           0        4.726963   -2.108228    1.962686
     12          7           0        2.959696    1.681662   -0.002167
     13          8           0        3.290896    2.337623    0.983053
     14          8           0        2.386289    2.131478   -0.991868
     15          6           0       -2.544153    2.393329   -0.188298
     16          6           0       -1.715208    1.350049   -0.613662
     17          6           0       -2.139462    0.021462   -0.516629
     18          6           0       -3.404385   -0.228831    0.013098
     19          6           0       -4.253339    0.788838    0.445439
     20          6           0       -3.808344    2.109894    0.338965
     21          1           0       -2.206527    3.422483   -0.267342
     22          1           0       -0.732923    1.567199   -1.023549
     23          1           0       -1.518062   -0.805429   -0.838397
     24          1           0       -5.227287    0.541087    0.849745
     25          1           0       -4.454246    2.918106    0.670099
     26          7           0       -3.864502   -1.631361    0.120819
     27          8           0       -4.983328   -1.825458    0.591131
     28          8           0       -3.097605   -2.510009   -0.267100
 ---------------------------------------------------------------------

 SCF Done:  E(RHF) =  -868.340130319     A.U. after   16 cycles
 E2 =    -0.2598605287D+01 EUMP2 =    -0.87093873560603D+03

 The electronic state is 1-A.
 Alpha  occ. eigenvalues --  -20.61636 -20.61567 -20.60590 -20.60577 -15.86619
 Alpha  occ. eigenvalues --  -15.85632 -11.31724 -11.30828 -11.28285 -11.28224
 Alpha  occ. eigenvalues --  -11.27898 -11.27369 -11.27357 -11.27196 -11.27173
 Alpha  occ. eigenvalues --  -11.26972 -11.26338 -11.26183  -1.60659  -1.59664
 Alpha  occ. eigenvalues --   -1.40223  -1.39223  -1.19859  -1.18957  -1.09293
 Alpha  occ. eigenvalues --   -1.08363  -1.05222  -1.04330  -0.96176  -0.95240
 Alpha  occ. eigenvalues --   -0.86629  -0.85717  -0.83020  -0.82079  -0.78110
 Alpha  occ. eigenvalues --   -0.77166  -0.72844  -0.71962  -0.71854  -0.70983
 Alpha  occ. eigenvalues --   -0.70950  -0.70035  -0.65511  -0.65210  -0.64596
 Alpha  occ. eigenvalues --   -0.64284  -0.62579  -0.61675  -0.55703  -0.54775
 Alpha  occ. eigenvalues --   -0.53561  -0.53304  -0.52675  -0.52391  -0.49620
 Alpha  occ. eigenvalues --   -0.49573  -0.48622  -0.48591  -0.45670  -0.44668
 Alpha  occ. eigenvalues --   -0.37801  -0.36900  -0.36816  -0.35940
 Alpha virt. eigenvalues --    0.04365   0.05349   0.10826   0.11725   0.15905
 Alpha virt. eigenvalues --    0.16909   0.20840   0.22038   0.26460   0.27371
 Alpha virt. eigenvalues --    0.28536   0.28812   0.30409   0.31397   0.32498

 Mulliken charges:
               1
     1  C   -0.169035
     2  C   -0.217306
     3  C   -0.175016
     4  C    0.158486
     5  C   -0.170298
     6  C   -0.217814
     7  H    0.229428
     8  H    0.226828
     9  H    0.271839
    10  H    0.276460
    11  H    0.226124
    12  N    0.488819
    13  O   -0.455417
    14  O   -0.469255
    15  C   -0.171216
    16  C   -0.225924
    17  C   -0.173108
    18  C    0.158435
    19  C   -0.172308
    20  C   -0.218618
    21  H    0.231030
    22  H    0.238705
    23  H    0.269733
    24  H    0.273835
    25  H    0.222686
    26  N    0.488335
    27  O   -0.461148
    28  O   -0.464280
 Sum of Mulliken charges =  -0.00000

 Dipole moment (field-independent basis, Debye):
    X=              3.0635    Y=             -0.1384    Z=             -0.2677  Tot=              3.0783
 Quadrupole moment (field-independent basis, Debye-Ang):
   XX=           -104.5414   YY=           -109.5748   ZZ=           -100.7928
   XY=            -36.1088   XZ=              1.9527   YZ=              1.4130

 Normal termination of Gaussian 16 at Thu May  6 02:03:26 2021.
