 Gaussian 16, Revision A.03,
 Gaussian 16:  EM64L-G16RevA.03 25-Dec-2016

 -------------
 #p 6-31g* mp2
 -------------

 ------------------------------------------------------
 Input file generated by CHIRIPA (05-May-2021 14:53:15)
 ------------------------------------------------------
 Symbolic Z-matrix:
 Charge =  0 Multiplicity = 1

                         Standard orientation:
 ---------------------------------------------------------------------
 Center     Atomic      Atomic             Coordinates (Angstroms)
 Number     Number       Type             X           Y           Z
 ---------------------------------------------------------------------
      1          6           0       -3.930680   -0.217038    0.135275
      2          6           0       -4.108860    0.980959   -0.798020
      3          6           0       -5.545408    1.504029   -0.820840
      4          1           0       -4.610418   -1.021532   -0.177279
      5          1           0       -4.233322    0.070636    1.151664
      6          1           0       -3.804662    0.691518   -1.812073
      7          1           0       -3.428481    1.782624   -0.483324
      8          1           0       -5.856426    1.819618    0.180296
      9          1           0       -6.234744    0.722312   -1.156002
     10          1           0       -5.650209    2.360346   -1.494337
     11          6           0       -2.499877   -0.751268    0.168886
     12          6           0       -2.321697   -1.949265    1.102181
     13          6           0       -0.885148   -2.472335    1.125001
     14          1           0       -2.197234   -1.038942   -0.847503
     15          1           0       -1.820139    0.053226    0.481441
     16          1           0       -3.002076   -2.750930    0.787485
     17          1           0       -2.625894   -1.659823    2.116234
     18          1           0       -0.195812   -1.690617    1.460164
     19          1           0       -0.574131   -2.787924    0.123865
     20          1           0       -0.780348   -3.328652    1.798498
     21          6           0        1.906324    2.678773    0.721856
     22          6           0        3.249929    2.315464    0.583100
     23          6           0        3.597139    1.043500    0.118234
     24          6           0        2.570485    0.155838   -0.200086
     25          6           0        1.222671    0.488157   -0.072595
     26          6           0        0.898759    1.765570    0.394144
     27          1           0        1.645651    3.668982    1.083703
     28          1           0        4.034524    3.022617    0.836849
     29          1           0        4.629242    0.736071    0.001323
     30          1           0        0.462761   -0.238390   -0.333524
     31          1           0       -0.145547    2.044977    0.500908
     32          7           0        2.925728   -1.193618   -0.693210
     33          8           0        2.002490   -1.957396   -0.966913
     34          8           0        4.120679   -1.461991   -0.796680
 ---------------------------------------------------------------------

 SCF Done:  E(RHF) =  -669.534220192     A.U. after   15 cycles
 E2 =    -0.2094415706D+01 EUMP2 =    -0.67162863589820D+03

 The electronic state is 1-A.
 Alpha  occ. eigenvalues --  -20.60747 -20.60738 -15.85788 -11.31107 -11.27706
 Alpha  occ. eigenvalues --  -11.27579 -11.27452 -11.26714 -11.26684 -11.22142
 Alpha  occ. eigenvalues --  -11.21995 -11.21847 -11.21724 -11.21491 -11.20748
 Alpha  occ. eigenvalues --   -1.59813  -1.39369  -1.19296  -1.08873  -1.08701
 Alpha  occ. eigenvalues --   -1.04704  -1.03810  -0.96241  -0.95538  -0.87254
 Alpha  occ. eigenvalues --   -0.86098  -0.82382  -0.79898  -0.78824  -0.77345
 Alpha  occ. eigenvalues --   -0.72016  -0.71131  -0.70417  -0.65529  -0.64939
 Alpha  occ. eigenvalues --   -0.64719  -0.62110  -0.61162  -0.59617  -0.57872
 Alpha  occ. eigenvalues --   -0.55526  -0.55209  -0.53051  -0.52913  -0.52805
 Alpha  occ. eigenvalues --   -0.52607  -0.50178  -0.48804  -0.48766  -0.48101
 Alpha  occ. eigenvalues --   -0.46904  -0.46217  -0.46122  -0.44741  -0.44105
 Alpha  occ. eigenvalues --   -0.37285  -0.36274
 Alpha virt. eigenvalues --    0.05077   0.11280   0.16532   0.19894   0.22708
 Alpha virt. eigenvalues --    0.23884   0.24627   0.26305   0.27493   0.28404
 Alpha virt. eigenvalues --    0.29661   0.31154   0.31507   0.31679   0.31987

 Mulliken charges:
               1
     1  C   -0.297366
     2  C   -0.299359
     3  C   -0.475966
     4  H    0.154094
     5  H    0.150124
     6  H    0.154694
     7  H    0.143842
     8  H    0.155320
     9  H    0.157826
    10  H    0.160991
    11  C   -0.308854
    12  C   -0.298270
    13  C   -0.486238
    14  H    0.154581
    15  H    0.139074
    16  H    0.154720
    17  H    0.150338
    18  H    0.149513
    19  H    0.176564
    20  H    0.163079
    21  C   -0.170168
    22  C   -0.219158
    23  C   -0.170083
    24  C    0.155796
    25  C   -0.175813
    26  C   -0.226991
    27  H    0.225374
    28  H    0.223174
    29  H    0.275292
    30  H    0.291304
    31  H    0.225559
    32  N    0.489941
    33  O   -0.462455
    34  O   -0.460482
 Sum of Mulliken charges =  -0.00000

 Dipole moment (field-independent basis, Debye):
    X=             -1.3283    Y=              4.5436    Z=              1.6566  Tot=              5.0153
 Quadrupole moment (field-independent basis, Debye-Ang):
   XX=            -96.9812   YY=            -92.9813   ZZ=            -95.7732
   XY=             14.2488   XZ=              5.4340   YZ=              0.0695

 Normal termination of Gaussian 16 at Thu May  6 18:50:48 2021.
