 Gaussian 16, Revision A.03,
 Gaussian 16:  EM64L-G16RevA.03 25-Dec-2016

 -------------
 #p 6-31g* mp2
 -------------

 ------------------------------------------------------
 Input file generated by CHIRIPA (05-May-2021 14:57:25)
 ------------------------------------------------------
 Symbolic Z-matrix:
 Charge =  0 Multiplicity = 1

                         Standard orientation:
 ---------------------------------------------------------------------
 Center     Atomic      Atomic             Coordinates (Angstroms)
 Number     Number       Type             X           Y           Z
 ---------------------------------------------------------------------
      1          6           0        2.412963    2.443269    0.945367
      2          6           0        2.647920    2.235542   -0.417779
      3          6           0        2.812731    0.941551   -0.920742
      4          6           0        2.736162   -0.126548   -0.028222
      5          6           0        2.503308    0.048004    1.335083
      6          6           0        2.341533    1.350763    1.815912
      7          1           0        2.286113    3.451878    1.327483
      8          1           0        2.703893    3.082110   -1.096184
      9          1           0        2.995720    0.752137   -1.971482
     10          1           0        2.452775   -0.815770    1.986818
     11          1           0        2.159177    1.509088    2.875027
     12          7           0        2.909033   -1.501079   -0.548970
     13          8           0        2.837131   -2.425297    0.258054
     14          8           0        3.113157   -1.628192   -1.754297
     15          6           0       -2.442463   -2.549146    0.487584
     16          6           0       -3.716074   -1.971359    0.463204
     17          6           0       -3.874914   -0.615326    0.162381
     18          6           0       -2.733309    0.136784   -0.110311
     19          6           0       -1.451064   -0.409905   -0.093887
     20          6           0       -1.316008   -1.767952    0.209451
     21          1           0       -2.328310   -3.603328    0.722247
     22          1           0       -4.592678   -2.575619    0.678797
     23          1           0       -4.849154   -0.142455    0.136566
     24          1           0       -0.596022    0.218000   -0.313107
     25          1           0       -0.325673   -2.213990    0.227657
     26          7           0       -2.888877    1.573421   -0.430109
     27          8           0       -1.867251    2.214464   -0.666715
     28          8           0       -4.029490    2.031212   -0.438106
 ---------------------------------------------------------------------

 SCF Done:  E(RHF) =  -868.340337618     A.U. after   16 cycles
 E2 =    -0.2600517220D+01 EUMP2 =    -0.87094085483787D+03

 The electronic state is 1-A.
 Alpha  occ. eigenvalues --  -20.61533 -20.61493 -20.60814 -20.60794 -15.86526
 Alpha  occ. eigenvalues --  -15.85852 -11.31635 -11.31021 -11.28168 -11.28098
 Alpha  occ. eigenvalues --  -11.27719 -11.27583 -11.27510 -11.27225 -11.27054
 Alpha  occ. eigenvalues --  -11.26983 -11.26556 -11.26412  -1.60587  -1.59885
 Alpha  occ. eigenvalues --   -1.40142  -1.39444  -1.19759  -1.19165  -1.09171
 Alpha  occ. eigenvalues --   -1.08588  -1.05084  -1.04532  -0.96054  -0.95461
 Alpha  occ. eigenvalues --   -0.86483  -0.85928  -0.82882  -0.82300  -0.77991
 Alpha  occ. eigenvalues --   -0.77379  -0.72731  -0.72081  -0.71926  -0.71204
 Alpha  occ. eigenvalues --   -0.70780  -0.70256  -0.65372  -0.65038  -0.64810
 Alpha  occ. eigenvalues --   -0.64501  -0.62426  -0.61878  -0.55523  -0.55026
 Alpha  occ. eigenvalues --   -0.53483  -0.53139  -0.52881  -0.52543  -0.49520
 Alpha  occ. eigenvalues --   -0.49470  -0.48840  -0.48814  -0.45576  -0.44894
 Alpha  occ. eigenvalues --   -0.37672  -0.37131  -0.36714  -0.36099
 Alpha virt. eigenvalues --    0.04482   0.05136   0.10958   0.11522   0.16046
 Alpha virt. eigenvalues --    0.16683   0.21175   0.21667   0.26825   0.27254
 Alpha virt. eigenvalues --    0.28117   0.28528   0.30597   0.31449   0.32151

 Mulliken charges:
               1
     1  C   -0.165474
     2  C   -0.212929
     3  C   -0.174038
     4  C    0.149966
     5  C   -0.177073
     6  C   -0.217894
     7  H    0.231776
     8  H    0.230013
     9  H    0.277648
    10  H    0.273731
    11  H    0.225907
    12  N    0.486305
    13  O   -0.465696
    14  O   -0.454777
    15  C   -0.171262
    16  C   -0.218932
    17  C   -0.171755
    18  C    0.157379
    19  C   -0.175898
    20  C   -0.226358
    21  H    0.228568
    22  H    0.222788
    23  H    0.274060
    24  H    0.276421
    25  H    0.235361
    26  N    0.488082
    27  O   -0.464869
    28  O   -0.461049
 Sum of Mulliken charges =  -0.00000

 Dipole moment (field-independent basis, Debye):
    X=              0.1660    Y=             -0.0077    Z=              2.9462  Tot=              2.9509
 Quadrupole moment (field-independent basis, Debye-Ang):
   XX=           -106.9064   YY=           -107.0555   ZZ=           -101.5899
   XY=             29.1745   XZ=              0.4541   YZ=             -1.4702

 Normal termination of Gaussian 16 at Thu May  6 05:08:52 2021.
