 Gaussian 16, Revision A.03,
 Gaussian 16:  EM64L-G16RevA.03 25-Dec-2016

 -------------
 #p 6-31g* mp2
 -------------

 ------------------------------------------------------
 Input file generated by CHIRIPA (05-May-2021 14:55:25)
 ------------------------------------------------------
 Symbolic Z-matrix:
 Charge =  0 Multiplicity = 1

                         Standard orientation:
 ---------------------------------------------------------------------
 Center     Atomic      Atomic             Coordinates (Angstroms)
 Number     Number       Type             X           Y           Z
 ---------------------------------------------------------------------
      1          6           0       -0.530991   -0.649595    0.607391
      2          6           0       -0.801020    0.316174   -0.367747
      3          6           0       -2.119312    0.666738   -0.673950
      4          6           0       -3.147915    0.028686    0.017536
      5          6           0       -2.911089   -0.937354    0.994251
      6          6           0       -1.585029   -1.272179    1.284085
      7          1           0        0.496107   -0.915808    0.838900
      8          1           0        0.015565    0.801323   -0.894875
      9          1           0       -2.356781    1.411034   -1.424317
     10          1           0       -3.746114   -1.403669    1.502877
     11          1           0       -1.378299   -2.022561    2.041868
     12          7           0       -4.547644    0.391481   -0.297963
     13          8           0       -5.436105   -0.185254    0.325455
     14          8           0       -4.729786    1.245706   -1.162695
     15          6           0        3.778076    0.623902    0.401239
     16          6           0        3.897300    1.984633   -0.285920
     17          6           0        3.984441    3.143204    0.708019
     18          1           0        2.889048    0.622832    1.046665
     19          1           0        4.643963    0.477321    1.061653
     20          1           0        3.032146    2.128010   -0.945895
     21          1           0        4.786040    1.982398   -0.929933
     22          1           0        4.856986    3.027443    1.359068
     23          1           0        3.093127    3.173881    1.343015
     24          1           0        4.069078    4.106467    0.195360
     25          6           0        3.690016   -0.544268   -0.579246
     26          6           0        3.570792   -1.904998    0.107912
     27          6           0        3.483651   -3.063569   -0.886027
     28          1           0        2.824129   -0.397686   -1.239661
     29          1           0        4.579042   -0.543197   -1.224672
     30          1           0        2.682052   -1.902764    0.751924
     31          1           0        4.435945   -2.048375    0.767886
     32          1           0        4.374964   -3.094246   -1.521023
     33          1           0        2.611106   -2.947808   -1.537076
     34          1           0        3.399013   -4.026833   -0.373368
 ---------------------------------------------------------------------

 SCF Done:  E(RHF) =  -669.535400021     A.U. after   15 cycles
 E2 =    -0.2092126283D+01 EUMP2 =    -0.67162752630337D+03

 The electronic state is 1-A.
 Alpha  occ. eigenvalues --  -20.60755 -20.60750 -15.85809 -11.31178 -11.27750
 Alpha  occ. eigenvalues --  -11.27745 -11.27464 -11.26766 -11.26752 -11.22833
 Alpha  occ. eigenvalues --  -11.22594 -11.22569 -11.22490 -11.22023 -11.21838
 Alpha  occ. eigenvalues --   -1.59831  -1.39384  -1.19350  -1.09560  -1.08742
 Alpha  occ. eigenvalues --   -1.04755  -1.04551  -0.96967  -0.95579  -0.87977
 Alpha  occ. eigenvalues --   -0.86152  -0.82415  -0.80625  -0.79367  -0.77459
 Alpha  occ. eigenvalues --   -0.72027  -0.71154  -0.70504  -0.66232  -0.64999
 Alpha  occ. eigenvalues --   -0.64726  -0.62106  -0.61963  -0.60337  -0.58580
 Alpha  occ. eigenvalues --   -0.56254  -0.55269  -0.53625  -0.53373  -0.53082
 Alpha  occ. eigenvalues --   -0.52847  -0.50908  -0.48921  -0.48785  -0.48782
 Alpha  occ. eigenvalues --   -0.47687  -0.46874  -0.46837  -0.44824  -0.44789
 Alpha  occ. eigenvalues --   -0.37326  -0.36361
 Alpha virt. eigenvalues --    0.05067   0.11270   0.16529   0.17379   0.22308
 Alpha virt. eigenvalues --    0.23470   0.24510   0.25076   0.26863   0.28339
 Alpha virt. eigenvalues --    0.29659   0.30444   0.30862   0.31313   0.32245

 Mulliken charges:
               1
     1  C   -0.178926
     2  C   -0.224305
     3  C   -0.170687
     4  C    0.158440
     5  C   -0.170584
     6  C   -0.221194
     7  H    0.238610
     8  H    0.225348
     9  H    0.275673
    10  H    0.275597
    11  H    0.223821
    12  N    0.487962
    13  O   -0.460416
    14  O   -0.460442
    15  C   -0.300733
    16  C   -0.299771
    17  C   -0.476550
    18  H    0.143701
    19  H    0.154640
    20  H    0.147272
    21  H    0.156020
    22  H    0.157584
    23  H    0.155926
    24  H    0.163637
    25  C   -0.301401
    26  C   -0.302960
    27  C   -0.476552
    28  H    0.145089
    29  H    0.156251
    30  H    0.142363
    31  H    0.157728
    32  H    0.159407
    33  H    0.156562
    34  H    0.162894
 Sum of Mulliken charges =  -0.00000

 Dipole moment (field-independent basis, Debye):
    X=              5.2060    Y=             -1.2797    Z=              1.0831  Tot=              5.4693
 Quadrupole moment (field-independent basis, Debye-Ang):
   XX=           -123.4867   YY=            -93.5372   ZZ=            -93.1688
   XY=              5.2569   XZ=             -4.8711   YZ=             -3.0444

 Normal termination of Gaussian 16 at Wed May  5 19:10:45 2021.
