 Gaussian 16, Revision A.03,
 Gaussian 16:  EM64L-G16RevA.03 25-Dec-2016

 -------------
 #p 6-31g* mp2
 -------------

 ------------------------------------------------------
 Input file generated by CHIRIPA (05-May-2021 14:53:14)
 ------------------------------------------------------
 Symbolic Z-matrix:
 Charge =  0 Multiplicity = 1

                         Standard orientation:
 ---------------------------------------------------------------------
 Center     Atomic      Atomic             Coordinates (Angstroms)
 Number     Number       Type             X           Y           Z
 ---------------------------------------------------------------------
      1          6           0        4.133536   -0.303357    0.512409
      2          6           0        4.764748   -0.872077   -0.758856
      3          6           0        5.815241   -1.944447   -0.468544
      4          1           0        4.923253    0.117892    1.149465
      5          1           0        3.674737   -1.122268    1.083623
      6          1           0        5.221017   -0.052139   -1.328186
      7          1           0        3.973415   -1.291849   -1.393047
      8          1           0        5.370115   -2.781552    0.078921
      9          1           0        6.624806   -1.534798    0.144150
     10          1           0        6.253559   -2.337279   -1.391268
     11          6           0        3.081386    0.769819    0.238548
     12          6           0        2.450173    1.338539    1.509813
     13          6           0        1.399680    2.410909    1.219501
     14          1           0        3.540184    1.588730   -0.332666
     15          1           0        2.291668    0.348570   -0.398508
     16          1           0        3.241507    1.758311    2.144004
     17          1           0        1.993904    0.518601    2.079143
     18          1           0        0.590115    2.001260    0.606807
     19          1           0        1.844807    3.248014    0.672036
     20          1           0        0.961362    2.803741    2.142225
     21          6           0       -1.016521    1.065419   -1.543474
     22          6           0       -0.749689   -0.198890   -1.007896
     23          6           0       -1.740447   -0.899282   -0.313346
     24          6           0       -2.992521   -0.302828   -0.172484
     25          6           0       -3.289089    0.955250   -0.694573
     26          6           0       -2.283136    1.637445   -1.385383
     27          1           0       -0.240975    1.602432   -2.081565
     28          1           0        0.233067   -0.645587   -1.129132
     29          1           0       -1.560977   -1.879465    0.111447
     30          1           0       -4.278382    1.374685   -0.557493
     31          1           0       -2.493202    2.619179   -1.800254
     32          7           0       -4.049434   -1.034670    0.560824
     33          8           0       -5.144380   -0.487365    0.671225
     34          8           0       -3.762885   -2.141735    1.011305
 ---------------------------------------------------------------------

 SCF Done:  E(RHF) =  -669.534497596     A.U. after   15 cycles
 E2 =    -0.2093441007D+01 EUMP2 =    -0.67162793860305D+03

 The electronic state is 1-A.
 Alpha  occ. eigenvalues --  -20.60810 -20.60805 -15.85865 -11.31254 -11.27832
 Alpha  occ. eigenvalues --  -11.27828 -11.27562 -11.26839 -11.26828 -11.22291
 Alpha  occ. eigenvalues --  -11.22255 -11.22166 -11.22059 -11.21604 -11.21477
 Alpha  occ. eigenvalues --   -1.59886  -1.39438  -1.19443  -1.09140  -1.08831
 Alpha  occ. eigenvalues --   -1.04846  -1.04132  -0.96585  -0.95659  -0.87600
 Alpha  occ. eigenvalues --   -0.86247  -0.82486  -0.80206  -0.78985  -0.77526
 Alpha  occ. eigenvalues --   -0.72084  -0.71209  -0.70543  -0.65858  -0.65088
 Alpha  occ. eigenvalues --   -0.64799  -0.62204  -0.61521  -0.59949  -0.58215
 Alpha  occ. eigenvalues --   -0.55940  -0.55323  -0.53339  -0.53231  -0.53002
 Alpha  occ. eigenvalues --   -0.52805  -0.50501  -0.48846  -0.48837  -0.48509
 Alpha  occ. eigenvalues --   -0.47239  -0.46501  -0.46424  -0.44839  -0.44419
 Alpha  occ. eigenvalues --   -0.37333  -0.36436
 Alpha virt. eigenvalues --    0.04987   0.11087   0.16422   0.19647   0.22696
 Alpha virt. eigenvalues --    0.23910   0.24936   0.26481   0.27137   0.28344
 Alpha virt. eigenvalues --    0.29158   0.31030   0.31348   0.31538   0.31616

 Mulliken charges:
               1
     1  C   -0.298791
     2  C   -0.299129
     3  C   -0.476065
     4  H    0.153340
     5  H    0.150510
     6  H    0.152814
     7  H    0.146459
     8  H    0.156410
     9  H    0.157167
    10  H    0.161692
    11  C   -0.300929
    12  C   -0.298699
    13  C   -0.485696
    14  H    0.150339
    15  H    0.138651
    16  H    0.154632
    17  H    0.153917
    18  H    0.162534
    19  H    0.151256
    20  H    0.163613
    21  C   -0.173645
    22  C   -0.219829
    23  C   -0.171263
    24  C    0.158863
    25  C   -0.170599
    26  C   -0.217913
    27  H    0.228535
    28  H    0.227846
    29  H    0.275939
    30  H    0.276084
    31  H    0.224351
    32  N    0.488027
    33  O   -0.460138
    34  O   -0.460282
 Sum of Mulliken charges =  -0.00000

 Dipole moment (field-independent basis, Debye):
    X=              3.7461    Y=              2.5746    Z=             -2.5427  Tot=              5.2084
 Quadrupole moment (field-independent basis, Debye-Ang):
   XX=           -114.9197   YY=            -93.8822   ZZ=            -94.3920
   XY=            -10.7472   XZ=              7.9274   YZ=             -0.3726

 Normal termination of Gaussian 16 at Thu May  6 07:23:11 2021.
