 Gaussian 16, Revision A.03,
 Gaussian 16:  EM64L-G16RevA.03 25-Dec-2016

 -------------
 #p 6-31g* mp2
 -------------

 ------------------------------------------------------
 Input file generated by CHIRIPA (05-May-2021 14:57:23)
 ------------------------------------------------------
 Symbolic Z-matrix:
 Charge =  0 Multiplicity = 1

                         Standard orientation:
 ---------------------------------------------------------------------
 Center     Atomic      Atomic             Coordinates (Angstroms)
 Number     Number       Type             X           Y           Z
 ---------------------------------------------------------------------
      1          6           0       -4.051056   -1.276571    0.006543
      2          6           0       -3.008222   -1.327994   -0.924250
      3          6           0       -2.084073   -0.282759   -1.013579
      4          6           0       -2.233361    0.803546   -0.152797
      5          6           0       -3.261607    0.883997    0.785034
      6          6           0       -4.174203   -0.172686    0.856715
      7          1           0       -4.764470   -2.092981    0.069081
      8          1           0       -2.910125   -2.184035   -1.585775
      9          1           0       -1.267256   -0.296788   -1.724938
     10          1           0       -3.333478    1.750521    1.431091
     11          1           0       -4.983087   -0.130048    1.580548
     12          7           0       -1.261121    1.916149   -0.238024
     13          8           0       -1.414526    2.862058    0.531625
     14          8           0       -0.364084    1.821231   -1.072861
     15          6           0        4.044168    1.279274   -0.044639
     16          6           0        3.606995    0.850771    1.213051
     17          6           0        2.692644   -0.200710    1.326624
     18          6           0        2.234027   -0.803807    0.156480
     19          6           0        2.650715   -0.399618   -1.110916
     20          6           0        3.565478    0.653815   -1.200570
     21          1           0        4.754619    2.096847   -0.123575
     22          1           0        3.977058    1.334656    2.112470
     23          1           0        2.337540   -0.552506    2.287643
     24          1           0        2.263969   -0.901531   -1.989510
     25          1           0        3.903247    0.984493   -2.178634
     26          7           0        1.265827   -1.917996    0.264054
     27          8           0        0.876854   -2.432817   -0.782032
     28          8           0        0.914257   -2.255378    1.392420
 ---------------------------------------------------------------------

 SCF Done:  E(RHF) =  -868.340245977     A.U. after   16 cycles
 E2 =    -0.2600452009D+01 EUMP2 =    -0.87094069798519D+03

 The electronic state is 1-A.
 Alpha  occ. eigenvalues --  -20.60732 -20.60680 -20.60518 -20.60513 -15.85723
 Alpha  occ. eigenvalues --  -15.85546 -11.30632 -11.30577 -11.27189 -11.27185
 Alpha  occ. eigenvalues --  -11.27144 -11.27030 -11.26842 -11.26783 -11.26111
 Alpha  occ. eigenvalues --  -11.26109 -11.26078 -11.25960  -1.59772  -1.59592
 Alpha  occ. eigenvalues --   -1.39344  -1.39156  -1.18765  -1.18711  -1.08256
 Alpha  occ. eigenvalues --   -1.08178  -1.04120  -1.04049  -0.95175  -0.95064
 Alpha  occ. eigenvalues --   -0.85561  -0.85484  -0.82043  -0.81903  -0.77138
 Alpha  occ. eigenvalues --   -0.76986  -0.71979  -0.71788  -0.71133  -0.70855
 Alpha  occ. eigenvalues --   -0.69925  -0.69823  -0.64453  -0.64368  -0.64163
 Alpha  occ. eigenvalues --   -0.64055  -0.61519  -0.61403  -0.54670  -0.54595
 Alpha  occ. eigenvalues --   -0.52488  -0.52335  -0.52252  -0.52146  -0.48742
 Alpha  occ. eigenvalues --   -0.48679  -0.48552  -0.48505  -0.44854  -0.44620
 Alpha  occ. eigenvalues --   -0.36692  -0.36685  -0.35650  -0.35598
 Alpha virt. eigenvalues --    0.05261   0.05607   0.11933   0.12039   0.16942
 Alpha virt. eigenvalues --    0.17112   0.21815   0.22263   0.27445   0.28121
 Alpha virt. eigenvalues --    0.28582   0.29279   0.31216   0.31825   0.32466

 Mulliken charges:
               1
     1  C   -0.169461
     2  C   -0.211601
     3  C   -0.169536
     4  C    0.156111
     5  C   -0.171491
     6  C   -0.217904
     7  H    0.225069
     8  H    0.229046
     9  H    0.275463
    10  H    0.272044
    11  H    0.221061
    12  N    0.488431
    13  O   -0.463170
    14  O   -0.465861
    15  C   -0.166247
    16  C   -0.215910
    17  C   -0.170802
    18  C    0.158230
    19  C   -0.160710
    20  C   -0.212319
    21  H    0.225315
    22  H    0.222286
    23  H    0.272509
    24  H    0.269762
    25  H    0.222737
    26  N    0.488291
    27  O   -0.471099
    28  O   -0.460244
 Sum of Mulliken charges =  -0.00000

 Dipole moment (field-independent basis, Debye):
    X=              0.0777    Y=             -0.0112    Z=             -0.1415  Tot=              0.1618
 Quadrupole moment (field-independent basis, Debye-Ang):
   XX=            -73.9098   YY=           -117.7943   ZZ=            -97.7668
   XY=             12.0604   XZ=             -2.4226   YZ=              4.2742

 Normal termination of Gaussian 16 at Fri May  7 09:28:11 2021.
