 Gaussian 16, Revision A.03,
 Gaussian 16:  EM64L-G16RevA.03 25-Dec-2016

 -------------
 #p 6-31g* mp2
 -------------

 ------------------------------------------------------
 Input file generated by CHIRIPA (05-May-2021 14:55:25)
 ------------------------------------------------------
 Symbolic Z-matrix:
 Charge =  0 Multiplicity = 1

                         Standard orientation:
 ---------------------------------------------------------------------
 Center     Atomic      Atomic             Coordinates (Angstroms)
 Number     Number       Type             X           Y           Z
 ---------------------------------------------------------------------
      1          6           0        2.848710   -2.262524    1.184010
      2          6           0        3.894315   -1.394759    0.852024
      3          6           0        3.654180   -0.258976    0.072999
      4          6           0        2.350442   -0.020413   -0.359025
      5          6           0        1.287645   -0.866037   -0.044905
      6          6           0        1.551000   -1.995863    0.735277
      7          1           0        3.044271   -3.142514    1.789625
      8          1           0        4.903133   -1.599342    1.199123
      9          1           0        4.445092    0.429542   -0.198701
     10          1           0        0.292528   -0.635670   -0.405587
     11          1           0        0.737023   -2.668028    0.991562
     12          7           0        2.083931    1.178837   -1.184357
     13          8           0        0.926452    1.366698   -1.552580
     14          8           0        3.037565    1.908239   -1.447401
     15          6           0       -2.641611    0.914899    0.273599
     16          6           0       -2.355809    1.479088    1.665716
     17          6           0       -1.508175    2.750975    1.625532
     18          1           0       -1.689417    0.706799   -0.233320
     19          1           0       -3.154403    1.679589   -0.326141
     20          1           0       -1.844943    0.713081    2.263097
     21          1           0       -3.308795    1.685690    2.169453
     22          1           0       -2.015329    3.533966    1.052538
     23          1           0       -0.543159    2.555831    1.146715
     24          1           0       -1.315890    3.137224    2.631363
     25          6           0       -3.487968   -0.356654    0.297283
     26          6           0       -3.773769   -0.920845   -1.094834
     27          6           0       -4.621403   -2.192732   -1.054650
     28          1           0       -2.975175   -1.121346    0.897022
     29          1           0       -4.440161   -0.148555    0.804201
     30          1           0       -2.820783   -1.127446   -1.598571
     31          1           0       -4.284635   -0.154838   -1.692216
     32          1           0       -5.586419   -1.997587   -0.575834
     33          1           0       -4.114249   -2.975722   -0.481657
     34          1           0       -4.813689   -2.578980   -2.060482
 ---------------------------------------------------------------------

 SCF Done:  E(RHF) =  -669.535794717     A.U. after   15 cycles
 E2 =    -0.2092665338D+01 EUMP2 =    -0.67162846005527D+03

 The electronic state is 1-A.
 Alpha  occ. eigenvalues --  -20.60947 -20.60939 -15.85968 -11.31292 -11.27851
 Alpha  occ. eigenvalues --  -11.27847 -11.27587 -11.26863 -11.26853 -11.21647
 Alpha  occ. eigenvalues --  -11.21424 -11.21387 -11.21184 -11.21104 -11.20582
 Alpha  occ. eigenvalues --   -1.60002  -1.39558  -1.19460  -1.08863  -1.08344
 Alpha  occ. eigenvalues --   -1.04857  -1.03402  -0.95843  -0.95704  -0.86849
 Alpha  occ. eigenvalues --   -0.86260  -0.82538  -0.79477  -0.78148  -0.77566
 Alpha  occ. eigenvalues --   -0.72190  -0.71312  -0.70578  -0.65142  -0.65101
 Alpha  occ. eigenvalues --   -0.64764  -0.62204  -0.60809  -0.59215  -0.57436
 Alpha  occ. eigenvalues --   -0.55380  -0.55124  -0.53185  -0.52960  -0.52535
 Alpha  occ. eigenvalues --   -0.52228  -0.49781  -0.48971  -0.48942  -0.47776
 Alpha  occ. eigenvalues --   -0.46546  -0.45659  -0.45619  -0.44854  -0.43664
 Alpha  occ. eigenvalues --   -0.37437  -0.36454
 Alpha virt. eigenvalues --    0.04909   0.11151   0.16404   0.19629   0.22926
 Alpha virt. eigenvalues --    0.24424   0.25522   0.26808   0.27679   0.28095
 Alpha virt. eigenvalues --    0.29838   0.31201   0.31519   0.31865   0.32151

 Mulliken charges:
               1
     1  C   -0.170273
     2  C   -0.218746
     3  C   -0.170018
     4  C    0.155615
     5  C   -0.173848
     6  C   -0.221447
     7  H    0.226106
     8  H    0.223895
     9  H    0.275905
    10  H    0.284891
    11  H    0.224277
    12  N    0.488542
    13  O   -0.463022
    14  O   -0.458449
    15  C   -0.310431
    16  C   -0.299371
    17  C   -0.476211
    18  H    0.163528
    19  H    0.154873
    20  H    0.144814
    21  H    0.150688
    22  H    0.158033
    23  H    0.162130
    24  H    0.156518
    25  C   -0.298204
    26  C   -0.299386
    27  C   -0.475067
    28  H    0.139786
    29  H    0.150798
    30  H    0.149422
    31  H    0.156467
    32  H    0.156153
    33  H    0.150652
    34  H    0.161378
 Sum of Mulliken charges =  -0.00000

 Dipole moment (field-independent basis, Debye):
    X=              1.0278    Y=             -4.0941    Z=              2.7833  Tot=              5.0562
 Quadrupole moment (field-independent basis, Debye-Ang):
   XX=            -85.0236   YY=            -95.3492   ZZ=            -97.8677
   XY=            -10.0915   XZ=              7.2043   YZ=              1.0990

 Normal termination of Gaussian 16 at Thu May  6 17:46:10 2021.
