 Gaussian 16, Revision A.03,
 Gaussian 16:  EM64L-G16RevA.03 25-Dec-2016

 -------------
 #p 6-31g* mp2
 -------------

 ------------------------------------------------------
 Input file generated by CHIRIPA (05-May-2021 14:57:25)
 ------------------------------------------------------
 Symbolic Z-matrix:
 Charge =  0 Multiplicity = 1

                         Standard orientation:
 ---------------------------------------------------------------------
 Center     Atomic      Atomic             Coordinates (Angstroms)
 Number     Number       Type             X           Y           Z
 ---------------------------------------------------------------------
      1          6           0       -5.874217    0.819412   -1.027330
      2          6           0       -5.560451    1.312276    0.243558
      3          6           0       -4.434034    0.845848    0.927792
      4          6           0       -3.639817   -0.118087    0.308648
      5          6           0       -3.926058   -0.628688   -0.956517
      6          6           0       -5.057459   -0.147792   -1.622263
      7          1           0       -6.751181    1.187364   -1.551679
      8          1           0       -6.192949    2.063446    0.708031
      9          1           0       -4.167856    1.210158    1.912600
     10          1           0       -3.276511   -1.377213   -1.393800
     11          1           0       -5.298696   -0.532364   -2.609154
     12          7           0       -2.444691   -0.619531    1.023230
     13          8           0       -1.761061   -1.468994    0.456043
     14          8           0       -2.214211   -0.153607    2.136976
     15          6           0        2.888948   -2.299470   -0.316210
     16          6           0        2.092273   -1.201371   -0.656811
     17          6           0        2.606957    0.096832   -0.591085
     18          6           0        3.928422    0.261173   -0.178760
     19          6           0        4.747242   -0.812700    0.167100
     20          6           0        4.211558   -2.101978    0.093935
     21          1           0        2.480972   -3.304477   -0.370157
     22          1           0        1.064772   -1.351746   -0.975676
     23          1           0        2.012322    0.964758   -0.849021
     24          1           0        5.767885   -0.631198    0.481368
     25          1           0        4.832585   -2.952908    0.359052
     26          7           0        4.484410    1.630798   -0.105240
     27          8           0        5.651680    1.748904    0.261052
     28          8           0        3.742398    2.560269   -0.415301
 ---------------------------------------------------------------------

 SCF Done:  E(RHF) =  -868.339423590     A.U. after   16 cycles
 E2 =    -0.2598379921D+01 EUMP2 =    -0.87093780351118D+03

 The electronic state is 1-A.
 Alpha  occ. eigenvalues --  -20.61543 -20.61463 -20.60079 -20.60074 -15.86542
 Alpha  occ. eigenvalues --  -15.85123 -11.31716 -11.30313 -11.28294 -11.28230
 Alpha  occ. eigenvalues --  -11.27952 -11.27241 -11.27202 -11.26875 -11.26801
 Alpha  occ. eigenvalues --  -11.26508 -11.25878 -11.25679  -1.60567  -1.59156
 Alpha  occ. eigenvalues --   -1.40130  -1.38715  -1.19867  -1.18446  -1.09294
 Alpha  occ. eigenvalues --   -1.07868  -1.05242  -1.03814  -0.96163  -0.94743
 Alpha  occ. eigenvalues --   -0.86649  -0.85215  -0.83005  -0.81577  -0.78078
 Alpha  occ. eigenvalues --   -0.76654  -0.72771  -0.71877  -0.71350  -0.70971
 Alpha  occ. eigenvalues --   -0.70473  -0.69559  -0.65524  -0.65239  -0.64095
 Alpha  occ. eigenvalues --   -0.63790  -0.62595  -0.61164  -0.55740  -0.54314
 Alpha  occ. eigenvalues --   -0.53579  -0.53331  -0.52156  -0.51892  -0.49534
 Alpha  occ. eigenvalues --   -0.49491  -0.48113  -0.48087  -0.45571  -0.44161
 Alpha  occ. eigenvalues --   -0.37830  -0.36836  -0.36405  -0.35401
 Alpha virt. eigenvalues --    0.04422   0.05859   0.10821   0.12254   0.15939
 Alpha virt. eigenvalues --    0.17416   0.20955   0.22422   0.26876   0.27624
 Alpha virt. eigenvalues --    0.28483   0.29209   0.30520   0.31700   0.32399

 Mulliken charges:
               1
     1  C   -0.169950
     2  C   -0.218232
     3  C   -0.170075
     4  C    0.157918
     5  C   -0.171341
     6  C   -0.218161
     7  H    0.227720
     8  H    0.225887
     9  H    0.277496
    10  H    0.271888
    11  H    0.224479
    12  N    0.489659
    13  O   -0.471174
    14  O   -0.454016
    15  C   -0.170875
    16  C   -0.215437
    17  C   -0.171977
    18  C    0.158355
    19  C   -0.172685
    20  C   -0.218542
    21  H    0.225774
    22  H    0.235452
    23  H    0.272357
    24  H    0.272489
    25  H    0.220322
    26  N    0.488313
    27  O   -0.462937
    28  O   -0.462708
 Sum of Mulliken charges =  -0.00000

 Dipole moment (field-independent basis, Debye):
    X=             -6.6293    Y=             -3.0518    Z=             -2.7157  Tot=              7.7870
 Quadrupole moment (field-independent basis, Debye-Ang):
   XX=            -86.4312   YY=           -106.4377   ZZ=           -103.7320
   XY=            -28.8120   XZ=              8.0065   YZ=              3.7442

 Normal termination of Gaussian 16 at Thu May  6 19:40:44 2021.
