 Gaussian 16, Revision A.03,
 Gaussian 16:  EM64L-G16RevA.03 25-Dec-2016

 -------------
 #p 6-31g* mp2
 -------------

 ------------------------------------------------------
 Input file generated by CHIRIPA (05-May-2021 14:55:20)
 ------------------------------------------------------
 Symbolic Z-matrix:
 Charge =  0 Multiplicity = 1

                         Standard orientation:
 ---------------------------------------------------------------------
 Center     Atomic      Atomic             Coordinates (Angstroms)
 Number     Number       Type             X           Y           Z
 ---------------------------------------------------------------------
      1          6           0        3.169832   -0.478691   -1.999782
      2          6           0        3.580052    0.357604   -0.956302
      3          6           0        2.919328    0.332262    0.275506
      4          6           0        1.847484   -0.545583    0.429871
      5          6           0        1.415070   -1.391082   -0.590638
      6          6           0        2.090553   -1.348831   -1.813947
      7          1           0        3.688830   -0.452437   -2.953379
      8          1           0        4.417913    1.034375   -1.097776
      9          1           0        3.215993    0.968861    1.100219
     10          1           0        0.576468   -2.055094   -0.419606
     11          1           0        1.769778   -1.999444   -2.622558
     12          7           0        1.140194   -0.581361    1.729432
     13          8           0        0.198751   -1.363715    1.840096
     14          8           0        1.540654    0.173626    2.612757
     15          6           0       -3.232865    0.525253   -0.474182
     16          6           0       -3.654244   -0.895128   -0.096103
     17          6           0       -5.094920   -1.211329   -0.498924
     18          1           0       -3.914445    1.242455    0.003329
     19          1           0       -3.348933    0.658244   -1.558726
     20          1           0       -3.536104   -1.025840    0.987213
     21          1           0       -2.971467   -1.609024   -0.574415
     22          1           0       -5.223688   -1.108601   -1.581266
     23          1           0       -5.791534   -0.522102   -0.010767
     24          1           0       -5.375252   -2.231651   -0.219247
     25          6           0       -1.795114    0.856343   -0.077978
     26          6           0       -1.373735    2.276724   -0.456056
     27          6           0        0.066941    2.592925   -0.053236
     28          1           0       -1.679046    0.723352    1.006566
     29          1           0       -1.113535    0.139141   -0.555489
     30          1           0       -2.056513    2.990621    0.022255
     31          1           0       -1.491875    2.407436   -1.539372
     32          1           0        0.763554    1.903699   -0.541393
     33          1           0        0.195708    2.490197    1.029107
     34          1           0        0.347272    3.613246   -0.332913
 ---------------------------------------------------------------------

 SCF Done:  E(RHF) =  -669.533566263     A.U. after   15 cycles
 E2 =    -0.2097166267D+01 EUMP2 =    -0.67163073252949D+03

 The electronic state is 1-A.
 Alpha  occ. eigenvalues --  -20.60899 -20.60885 -15.85880 -11.31185 -11.27827
 Alpha  occ. eigenvalues --  -11.27781 -11.27598 -11.26858 -11.26833 -11.21184
 Alpha  occ. eigenvalues --  -11.21089 -11.20931 -11.20758 -11.20692 -11.20608
 Alpha  occ. eigenvalues --   -1.59934  -1.39493  -1.19451  -1.08833  -1.07959
 Alpha  occ. eigenvalues --   -1.04851  -1.03108  -0.95672  -0.95565  -0.86625
 Alpha  occ. eigenvalues --   -0.86208  -0.82509  -0.79183  -0.77876  -0.77486
 Alpha  occ. eigenvalues --   -0.72136  -0.71205  -0.70551  -0.65091  -0.64853
 Alpha  occ. eigenvalues --   -0.64600  -0.62186  -0.60536  -0.58946  -0.57232
 Alpha  occ. eigenvalues --   -0.55349  -0.54931  -0.53317  -0.52927  -0.52268
 Alpha  occ. eigenvalues --   -0.51932  -0.49503  -0.48903  -0.48892  -0.47439
 Alpha  occ. eigenvalues --   -0.46158  -0.45500  -0.45201  -0.44592  -0.43339
 Alpha  occ. eigenvalues --   -0.37327  -0.36393
 Alpha virt. eigenvalues --    0.04897   0.11088   0.16427   0.21108   0.23335
 Alpha virt. eigenvalues --    0.24591   0.26005   0.27371   0.27617   0.28417
 Alpha virt. eigenvalues --    0.29060   0.30889   0.31702   0.32094   0.32291

 Mulliken charges:
               1
     1  C   -0.170939
     2  C   -0.216825
     3  C   -0.172611
     4  C    0.163312
     5  C   -0.172831
     6  C   -0.219504
     7  H    0.226208
     8  H    0.224228
     9  H    0.276245
    10  H    0.276549
    11  H    0.223919
    12  N    0.490230
    13  O   -0.457779
    14  O   -0.460224
    15  C   -0.298178
    16  C   -0.297848
    17  C   -0.475738
    18  H    0.149699
    19  H    0.144512
    20  H    0.162505
    21  H    0.145476
    22  H    0.151689
    23  H    0.155242
    24  H    0.159733
    25  C   -0.308178
    26  C   -0.296147
    27  C   -0.492655
    28  H    0.166542
    29  H    0.143780
    30  H    0.152050
    31  H    0.146994
    32  H    0.158818
    33  H    0.165239
    34  H    0.156490
 Sum of Mulliken charges =  -0.00000

 Dipole moment (field-independent basis, Debye):
    X=              2.6135    Y=              0.0247    Z=             -4.3637  Tot=              5.0866
 Quadrupole moment (field-independent basis, Debye-Ang):
   XX=            -85.0884   YY=            -93.2510   ZZ=            -97.8885
   XY=              0.9519   XZ=             -7.3525   YZ=              4.4048

 Normal termination of Gaussian 16 at Thu May  6 10:51:29 2021.
