 Gaussian 16, Revision A.03,
 Gaussian 16:  EM64L-G16RevA.03 25-Dec-2016

 -------------
 #p 6-31g* mp2
 -------------

 ------------------------------------------------------
 Input file generated by CHIRIPA (05-May-2021 14:57:25)
 ------------------------------------------------------
 Symbolic Z-matrix:
 Charge =  0 Multiplicity = 1

                         Standard orientation:
 ---------------------------------------------------------------------
 Center     Atomic      Atomic             Coordinates (Angstroms)
 Number     Number       Type             X           Y           Z
 ---------------------------------------------------------------------
      1          6           0        2.783305    2.251112    0.158589
      2          6           0        3.902242    2.074223   -0.661905
      3          6           0        4.517692    0.823025   -0.763258
      4          6           0        3.985456   -0.234192   -0.026843
      5          6           0        2.871912   -0.089625    0.799239
      6          6           0        2.272611    1.170528    0.885261
      7          1           0        2.311481    3.226551    0.231368
      8          1           0        4.301019    2.911625   -1.227396
      9          1           0        5.385067    0.658138   -1.390865
     10          1           0        2.497215   -0.943290    1.350850
     11          1           0        1.403748    1.304973    1.523263
     12          7           0        4.628457   -1.563520   -0.126026
     13          8           0        4.140287   -2.478971    0.532970
     14          8           0        5.608435   -1.664825   -0.860884
     15          6           0       -2.364182    1.993056    0.407349
     16          6           0       -2.006117    0.729329    0.888292
     17          6           0       -2.838009   -0.373709    0.674258
     18          6           0       -4.025974   -0.176119   -0.027870
     19          6           0       -4.410371    1.070391   -0.519545
     20          6           0       -3.563052    2.159260   -0.293798
     21          1           0       -1.711957    2.844420    0.578165
     22          1           0       -1.075660    0.597293    1.433141
     23          1           0       -2.585203   -1.363138    1.035558
     24          1           0       -5.344229    1.170827   -1.059210
     25          1           0       -3.843687    3.139524   -0.668460
     26          7           0       -4.914827   -1.336357   -0.260658
     27          8           0       -5.956081   -1.135950   -0.882160
     28          8           0       -4.553425   -2.424188    0.182794
 ---------------------------------------------------------------------

 SCF Done:  E(RHF) =  -868.336051982     A.U. after   16 cycles
 E2 =    -0.2599847461D+01 EUMP2 =    -0.87093589944303D+03

 The electronic state is 1-A.
 Alpha  occ. eigenvalues --  -20.61238 -20.61233 -20.61101 -20.61095 -15.86301
 Alpha  occ. eigenvalues --  -15.86161 -11.31832 -11.31677 -11.28488 -11.28402
 Alpha  occ. eigenvalues --  -11.28290 -11.28272 -11.28256 -11.28140 -11.27627
 Alpha  occ. eigenvalues --  -11.27445 -11.27439 -11.27319  -1.60310  -1.60173
 Alpha  occ. eigenvalues --   -1.39859  -1.39722  -1.20042  -1.19885  -1.09415
 Alpha  occ. eigenvalues --   -1.09270  -1.05488  -1.05315  -0.96214  -0.96071
 Alpha  occ. eigenvalues --   -0.86900  -0.86711  -0.83058  -0.82898  -0.78078
 Alpha  occ. eigenvalues --   -0.77895  -0.72516  -0.72378  -0.71635  -0.71498
 Alpha  occ. eigenvalues --   -0.71171  -0.71031  -0.65707  -0.65697  -0.65544
 Alpha  occ. eigenvalues --   -0.65230  -0.62906  -0.62586  -0.56018  -0.55866
 Alpha  occ. eigenvalues --   -0.53799  -0.53695  -0.53619  -0.53326  -0.49290
 Alpha  occ. eigenvalues --   -0.49259  -0.49149  -0.49121  -0.45228  -0.45094
 Alpha  occ. eigenvalues --   -0.38046  -0.37886  -0.37093  -0.36889
 Alpha virt. eigenvalues --    0.04493   0.04646   0.10445   0.10814   0.15866
 Alpha virt. eigenvalues --    0.16102   0.17881   0.22069   0.24454   0.26480
 Alpha virt. eigenvalues --    0.28050   0.28946   0.29437   0.31382   0.31878

 Mulliken charges:
               1
     1  C   -0.170363
     2  C   -0.218028
     3  C   -0.169239
     4  C    0.159329
     5  C   -0.169937
     6  C   -0.219483
     7  H    0.222929
     8  H    0.225539
     9  H    0.278262
    10  H    0.275596
    11  H    0.214928
    12  N    0.488096
    13  O   -0.458798
    14  O   -0.458192
    15  C   -0.170186
    16  C   -0.217834
    17  C   -0.170018
    18  C    0.159381
    19  C   -0.169923
    20  C   -0.218143
    21  H    0.218912
    22  H    0.216275
    23  H    0.278366
    24  H    0.277542
    25  H    0.224306
    26  N    0.487913
    27  O   -0.459086
    28  O   -0.458144
 Sum of Mulliken charges =  -0.00000

 Dipole moment (field-independent basis, Debye):
    X=              0.9062    Y=              8.6535    Z=              1.0108  Tot=              8.7593
 Quadrupole moment (field-independent basis, Debye-Ang):
   XX=           -142.8461   YY=           -106.9273   ZZ=           -102.9222
   XY=              1.5337   XZ=             -2.7457   YZ=             -3.7763

 Normal termination of Gaussian 16 at Thu May  6 03:33:31 2021.
