 Gaussian 16, Revision A.03,
 Gaussian 16:  EM64L-G16RevA.03 25-Dec-2016

 -------------
 #p 6-31g* mp2
 -------------

 ------------------------------------------------------
 Input file generated by CHIRIPA (05-May-2021 14:55:22)
 ------------------------------------------------------
 Symbolic Z-matrix:
 Charge =  0 Multiplicity = 1

                         Standard orientation:
 ---------------------------------------------------------------------
 Center     Atomic      Atomic             Coordinates (Angstroms)
 Number     Number       Type             X           Y           Z
 ---------------------------------------------------------------------
      1          6           0        0.995912   -1.168245    1.424053
      2          6           0        1.443154   -1.878173    0.304903
      3          6           0        2.561447   -1.442354   -0.412056
      4          6           0        3.211521   -0.287352    0.019991
      5          6           0        2.790224    0.441688    1.130982
      6          6           0        1.669686   -0.012618    1.832800
      7          1           0        0.126323   -1.513981    1.975123
      8          1           0        0.921855   -2.775984   -0.014829
      9          1           0        2.929130   -1.972790   -1.282036
     10          1           0        3.330565    1.333141    1.425535
     11          1           0        1.324600    0.540730    2.701573
     12          7           0        4.396596    0.183816   -0.731007
     13          8           0        4.951850    1.204353   -0.329965
     14          8           0        4.747765   -0.476341   -1.706460
     15          6           0       -3.116294    0.468465   -0.013071
     16          6           0       -2.446991    1.826275   -0.228414
     17          6           0       -0.957801    1.812837    0.117889
     18          1           0       -2.984663    0.163910    1.034242
     19          1           0       -2.603405   -0.286482   -0.624948
     20          1           0       -2.961867    2.578701    0.382630
     21          1           0       -2.580396    2.127723   -1.275290
     22          1           0       -0.425037    1.083262   -0.500563
     23          1           0       -0.808674    1.536803    1.166777
     24          1           0       -0.499265    2.793454   -0.043348
     25          6           0       -4.605196    0.465950   -0.354968
     26          6           0       -5.274498   -0.891859   -0.139624
     27          6           0       -6.763688   -0.878421   -0.485927
     28          1           0       -5.118085    1.220898    0.256909
     29          1           0       -4.736827    0.770506   -1.402281
     30          1           0       -5.141093   -1.193306    0.907251
     31          1           0       -4.759622   -1.644285   -0.750669
     32          1           0       -6.912814   -0.602386   -1.534816
     33          1           0       -7.296453   -0.148846    0.132525
     34          1           0       -7.222224   -1.859037   -0.324690
 ---------------------------------------------------------------------

 SCF Done:  E(RHF) =  -669.534673224     A.U. after   15 cycles
 E2 =    -0.2092608520D+01 EUMP2 =    -0.67162728174376D+03

 The electronic state is 1-A.
 Alpha  occ. eigenvalues --  -20.60746 -20.60740 -15.85800 -11.31165 -11.27743
 Alpha  occ. eigenvalues --  -11.27713 -11.27454 -11.26756 -11.26721 -11.22104
 Alpha  occ. eigenvalues --  -11.22024 -11.21958 -11.21849 -11.21481 -11.21410
 Alpha  occ. eigenvalues --   -1.59822  -1.39375  -1.19339  -1.08928  -1.08730
 Alpha  occ. eigenvalues --   -1.04746  -1.03973  -0.96425  -0.95565  -0.87445
 Alpha  occ. eigenvalues --   -0.86139  -0.82399  -0.80046  -0.78758  -0.77448
 Alpha  occ. eigenvalues --   -0.72019  -0.71145  -0.70440  -0.65558  -0.64991
 Alpha  occ. eigenvalues --   -0.64756  -0.62101  -0.61364  -0.59795  -0.58066
 Alpha  occ. eigenvalues --   -0.55715  -0.55237  -0.53482  -0.53083  -0.52841
 Alpha  occ. eigenvalues --   -0.52477  -0.50365  -0.48777  -0.48773  -0.48328
 Alpha  occ. eigenvalues --   -0.47081  -0.46291  -0.46218  -0.44782  -0.44247
 Alpha  occ. eigenvalues --   -0.37250  -0.36305
 Alpha virt. eigenvalues --    0.05075   0.11243   0.16533   0.20701   0.22567
 Alpha virt. eigenvalues --    0.23982   0.25813   0.26663   0.26761   0.28087
 Alpha virt. eigenvalues --    0.28632   0.30431   0.31111   0.31536   0.31571

 Mulliken charges:
               1
     1  C   -0.168043
     2  C   -0.219938
     3  C   -0.171716
     4  C    0.158357
     5  C   -0.171400
     6  C   -0.213520
     7  H    0.225861
     8  H    0.223367
     9  H    0.275433
    10  H    0.275519
    11  H    0.222777
    12  N    0.488107
    13  O   -0.460381
    14  O   -0.460691
    15  C   -0.297190
    16  C   -0.300850
    17  C   -0.473944
    18  H    0.142930
    19  H    0.148074
    20  H    0.151889
    21  H    0.154459
    22  H    0.161032
    23  H    0.145415
    24  H    0.161683
    25  C   -0.298299
    26  C   -0.299618
    27  C   -0.475882
    28  H    0.150642
    29  H    0.151897
    30  H    0.149845
    31  H    0.150837
    32  H    0.156581
    33  H    0.156041
    34  H    0.160726
 Sum of Mulliken charges =  -0.00000

 Dipole moment (field-independent basis, Debye):
    X=             -4.2058    Y=             -1.6328    Z=              2.6044  Tot=              5.2094
 Quadrupole moment (field-independent basis, Debye-Ang):
   XX=           -123.3438   YY=            -91.1172   ZZ=            -92.2356
   XY=             -3.9583   XZ=              8.5758   YZ=              2.1688

 Normal termination of Gaussian 16 at Wed May  5 23:52:10 2021.
