 Gaussian 16, Revision A.03,
 Gaussian 16:  EM64L-G16RevA.03 25-Dec-2016

 -------------
 #p 6-31g* mp2
 -------------

 ------------------------------------------------------
 Input file generated by CHIRIPA (05-May-2021 14:51:10)
 ------------------------------------------------------
 Symbolic Z-matrix:
 Charge =  0 Multiplicity = 1

                         Standard orientation:
 ---------------------------------------------------------------------
 Center     Atomic      Atomic             Coordinates (Angstroms)
 Number     Number       Type             X           Y           Z
 ---------------------------------------------------------------------
      1          6           0       -2.741265   -0.929625    0.639597
      2          6           0       -1.244564   -1.016093    0.940252
      3          6           0       -0.870991   -2.273872    1.725254
      4          1           0       -3.300628   -0.953271    1.584848
      5          1           0       -3.046495   -1.820501    0.073408
      6          1           0       -0.941970   -0.124652    1.504509
      7          1           0       -0.688690   -0.992045   -0.005815
      8          1           0       -1.144991   -3.173446    1.164636
      9          1           0       -1.399710   -2.301124    2.683542
     10          1           0        0.203484   -2.315421    1.929305
     11          6           0       -3.130306    0.322310   -0.144643
     12          6           0       -4.627007    0.408778   -0.445298
     13          6           0       -5.000580    1.666557   -1.230301
     14          1           0       -2.825076    1.213186    0.421546
     15          1           0       -2.570943    0.345956   -1.089894
     16          1           0       -5.182881    0.384731    0.500768
     17          1           0       -4.929601   -0.482663   -1.009556
     18          1           0       -4.471861    1.693810   -2.188588
     19          1           0       -4.726580    2.566131   -0.669683
     20          1           0       -6.075055    1.708106   -1.434351
     21          6           0        3.216184    1.012834   -0.290805
     22          6           0        2.577793    1.979322    0.707365
     23          6           0        3.149170    3.394082    0.608495
     24          1           0        4.301241    0.984276   -0.121162
     25          1           0        3.069079    1.398343   -1.309204
     26          1           0        2.724854    1.591401    1.723487
     27          1           0        1.494105    2.005437    0.535451
     28          1           0        2.989122    3.805033   -0.393555
     29          1           0        4.226864    3.388644    0.801231
     30          1           0        2.678738    4.068434    1.330855
     31          6           0        2.655387   -0.405519   -0.204149
     32          6           0        3.293778   -1.372008   -1.202318
     33          6           0        2.722401   -2.786768   -1.103449
     34          1           0        2.802492   -0.791029    0.814251
     35          1           0        1.570329   -0.376962   -0.373791
     36          1           0        4.377467   -1.398122   -1.030404
     37          1           0        3.146717   -0.984086   -2.218440
     38          1           0        1.644707   -2.781330   -1.296184
     39          1           0        2.882449   -3.197718   -0.101398
     40          1           0        3.192832   -3.461120   -1.825808
 ---------------------------------------------------------------------

 SCF Done:  E(RHF) =  -470.733171796     A.U. after   11 cycles
 E2 =    -0.1583547912D+01 EUMP2 =    -0.47231671970788D+03

 The electronic state is 1-A.
 Alpha  occ. eigenvalues --  -11.21620 -11.21590 -11.21586 -11.21580 -11.21421
 Alpha  occ. eigenvalues --  -11.21369 -11.21357 -11.21298 -11.21089 -11.21076
 Alpha  occ. eigenvalues --  -11.21059 -11.21031  -1.08457  -1.08395  -1.03546
 Alpha  occ. eigenvalues --   -1.03502  -0.95982  -0.95960  -0.87002  -0.86974
 Alpha  occ. eigenvalues --   -0.79632  -0.79561  -0.78378  -0.78098  -0.65141
 Alpha  occ. eigenvalues --   -0.64985  -0.61008  -0.60844  -0.59418  -0.59268
 Alpha  occ. eigenvalues --   -0.57643  -0.57522  -0.55272  -0.55251  -0.52687
 Alpha  occ. eigenvalues --   -0.52645  -0.52403  -0.52392  -0.49971  -0.49869
 Alpha  occ. eigenvalues --   -0.47984  -0.47890  -0.46788  -0.46520  -0.46092
 Alpha  occ. eigenvalues --   -0.45742  -0.45705  -0.45245  -0.43779  -0.43764
 Alpha virt. eigenvalues --    0.20785   0.23208   0.23420   0.24709   0.25245
 Alpha virt. eigenvalues --    0.26215   0.26767   0.27687   0.28453   0.29508
 Alpha virt. eigenvalues --    0.29968   0.30897   0.31757   0.32177   0.32273

 Mulliken charges:
               1
     1  C   -0.297612
     2  C   -0.304103
     3  C   -0.476800
     4  H    0.149743
     5  H    0.149405
     6  H    0.152944
     7  H    0.154533
     8  H    0.154975
     9  H    0.154810
    10  H    0.162420
    11  C   -0.298285
    12  C   -0.299602
    13  C   -0.475727
    14  H    0.149442
    15  H    0.148834
    16  H    0.152113
    17  H    0.151996
    18  H    0.155051
    19  H    0.155206
    20  H    0.160361
    21  C   -0.297692
    22  C   -0.300474
    23  C   -0.475658
    24  H    0.149422
    25  H    0.149208
    26  H    0.151621
    27  H    0.153066
    28  H    0.155182
    29  H    0.155139
    30  H    0.160053
    31  C   -0.306454
    32  C   -0.299411
    33  C   -0.476513
    34  H    0.148988
    35  H    0.159316
    36  H    0.151852
    37  H    0.151478
    38  H    0.155489
    39  H    0.155449
    40  H    0.160236
 Sum of Mulliken charges =  -0.00000

 Dipole moment (field-independent basis, Debye):
    X=             -0.0098    Y=             -0.0050    Z=              0.0073  Tot=              0.0131
 Quadrupole moment (field-independent basis, Debye-Ang):
   XX=            -84.6283   YY=            -86.3904   ZZ=            -83.8494
   XY=             -0.2387   XZ=              0.1148   YZ=              0.7032

 Normal termination of Gaussian 16 at Thu May  6 00:37:53 2021.
