 Gaussian 16, Revision A.03,
 Gaussian 16:  EM64L-G16RevA.03 25-Dec-2016

 -------------
 #p 6-31g* mp2
 -------------

 ------------------------------------------------------
 Input file generated by CHIRIPA (05-May-2021 14:53:11)
 ------------------------------------------------------
 Symbolic Z-matrix:
 Charge =  0 Multiplicity = 1

                         Standard orientation:
 ---------------------------------------------------------------------
 Center     Atomic      Atomic             Coordinates (Angstroms)
 Number     Number       Type             X           Y           Z
 ---------------------------------------------------------------------
      1          6           0        4.076911    0.804913   -0.163455
      2          6           0        2.634570    1.304268   -0.254464
      3          6           0        2.544945    2.800871   -0.554364
      4          1           0        4.604946    1.369076    0.617471
      5          1           0        4.593041    1.021905   -1.108928
      6          1           0        2.120916    1.085156    0.690399
      7          1           0        2.109853    0.738719   -1.035132
      8          1           0        3.032593    3.032803   -1.506734
      9          1           0        3.043718    3.381208    0.228602
     10          1           0        1.505005    3.136575   -0.615096
     11          6           0        4.182916   -0.689374    0.135875
     12          6           0        5.625256   -1.188728    0.226884
     13          6           0        5.714881   -2.685332    0.526784
     14          1           0        3.666786   -0.906365    1.081348
     15          1           0        3.654881   -1.253536   -0.645051
     16          1           0        6.149973   -0.623180    1.007552
     17          1           0        6.138910   -0.969616   -0.717979
     18          1           0        5.216108   -3.265668   -0.256182
     19          1           0        5.227234   -2.917263    1.479154
     20          1           0        6.754821   -3.021036    0.587516
     21          6           0       -1.401434    1.688169    0.186109
     22          6           0       -2.500592    1.739204    1.049688
     23          6           0       -3.517705    0.784078    0.961576
     24          6           0       -3.402935   -0.212701   -0.006177
     25          6           0       -2.320327   -0.290304   -0.880950
     26          6           0       -1.314962    0.675363   -0.774760
     27          1           0       -0.615879    2.434228    0.261578
     28          1           0       -2.570394    2.524624    1.796875
     29          1           0       -4.379675    0.799980    1.617453
     30          1           0       -2.278633   -1.085240   -1.615631
     31          1           0       -0.462498    0.633254   -1.446756
     32          7           0       -4.473488   -1.229430   -0.109026
     33          8           0       -4.348831   -2.097473   -0.970190
     34          8           0       -5.416974   -1.139049    0.673470
 ---------------------------------------------------------------------

 SCF Done:  E(RHF) =  -669.535186453     A.U. after   15 cycles
 E2 =    -0.2091886421D+01 EUMP2 =    -0.67162707287375D+03

 The electronic state is 1-A.
 Alpha  occ. eigenvalues --  -20.60718 -20.60713 -15.85771 -11.31125 -11.27692
 Alpha  occ. eigenvalues --  -11.27682 -11.27400 -11.26703 -11.26673 -11.22774
 Alpha  occ. eigenvalues --  -11.22376 -11.22237 -11.22115 -11.22019 -11.21462
 Alpha  occ. eigenvalues --   -1.59794  -1.39348  -1.19292  -1.09243  -1.08686
 Alpha  occ. eigenvalues --   -1.04696  -1.04366  -0.96810  -0.95524  -0.87820
 Alpha  occ. eigenvalues --   -0.86092  -0.82362  -0.80459  -0.78995  -0.77409
 Alpha  occ. eigenvalues --   -0.71989  -0.71117  -0.70430  -0.65872  -0.64945
 Alpha  occ. eigenvalues --   -0.64716  -0.62080  -0.61729  -0.60244  -0.58416
 Alpha  occ. eigenvalues --   -0.56067  -0.55214  -0.53507  -0.53192  -0.53020
 Alpha  occ. eigenvalues --   -0.52791  -0.50723  -0.48815  -0.48745  -0.48686
 Alpha  occ. eigenvalues --   -0.47472  -0.46539  -0.46424  -0.44756  -0.44605
 Alpha  occ. eigenvalues --   -0.37260  -0.36295
 Alpha virt. eigenvalues --    0.05113   0.11320   0.16583   0.19030   0.22501
 Alpha virt. eigenvalues --    0.23970   0.24799   0.25990   0.26381   0.27682
 Alpha virt. eigenvalues --    0.28999   0.29536   0.30798   0.31653   0.31777

 Mulliken charges:
               1
     1  C   -0.298617
     2  C   -0.304363
     3  C   -0.480089
     4  H    0.152162
     5  H    0.151668
     6  H    0.154423
     7  H    0.147617
     8  H    0.161455
     9  H    0.160779
    10  H    0.150529
    11  C   -0.298996
    12  C   -0.300375
    13  C   -0.476224
    14  H    0.151377
    15  H    0.149723
    16  H    0.152770
    17  H    0.152668
    18  H    0.156122
    19  H    0.156336
    20  H    0.161956
    21  C   -0.176375
    22  C   -0.219735
    23  C   -0.170936
    24  C    0.158482
    25  C   -0.171747
    26  C   -0.221511
    27  H    0.233061
    28  H    0.223505
    29  H    0.275252
    30  H    0.275370
    31  H    0.226953
    32  N    0.488013
    33  O   -0.460622
    34  O   -0.460631
 Sum of Mulliken charges =  -0.00000

 Dipole moment (field-independent basis, Debye):
    X=              4.0401    Y=              3.5462    Z=              0.3972  Tot=              5.3903
 Quadrupole moment (field-independent basis, Debye-Ang):
   XX=           -118.9675   YY=            -96.9507   ZZ=            -91.3086
   XY=            -14.0357   XZ=             -3.4024   YZ=              2.3003

 Normal termination of Gaussian 16 at Thu May  6 05:41:00 2021.
