 Gaussian 16, Revision A.03,
 Gaussian 16:  EM64L-G16RevA.03 25-Dec-2016

 -------------
 #p 6-31g* mp2
 -------------

 ------------------------------------------------------
 Input file generated by CHIRIPA (05-May-2021 14:53:14)
 ------------------------------------------------------
 Symbolic Z-matrix:
 Charge =  0 Multiplicity = 1

                         Standard orientation:
 ---------------------------------------------------------------------
 Center     Atomic      Atomic             Coordinates (Angstroms)
 Number     Number       Type             X           Y           Z
 ---------------------------------------------------------------------
      1          6           0       -4.176120    0.063737   -0.036498
      2          6           0       -3.327122   -1.206051    0.032984
      3          6           0       -1.829263   -0.922894   -0.085482
      4          1           0       -3.973191    0.581471   -0.983977
      5          1           0       -3.866721    0.747683    0.765926
      6          1           0       -3.638971   -1.887979   -0.768477
      7          1           0       -3.532238   -1.720922    0.980323
      8          1           0       -1.497078   -0.262169    0.721795
      9          1           0       -1.604417   -0.430175   -1.036941
     10          1           0       -1.241123   -1.844433   -0.033346
     11          6           0       -5.675745   -0.203026    0.080510
     12          6           0       -6.524742    1.066761    0.011028
     13          6           0       -8.022602    0.783604    0.129495
     14          1           0       -5.985144   -0.886973   -0.721914
     15          1           0       -5.878673   -0.720761    1.027989
     16          1           0       -6.319627    1.581633   -0.936311
     17          1           0       -6.212894    1.748690    0.812489
     18          1           0       -8.247447    0.290885    1.080953
     19          1           0       -8.354787    0.122879   -0.677783
     20          1           0       -8.610741    1.705143    0.077358
     21          6           0        2.982006   -2.314574   -0.074009
     22          6           0        2.114949   -1.245935   -0.324503
     23          6           0        2.584023    0.070760   -0.295660
     24          6           0        3.932143    0.283434   -0.011699
     25          6           0        4.820817   -0.760173    0.242130
     26          6           0        4.329797   -2.068715    0.208011
     27          1           0        2.609093   -3.334247   -0.098465
     28          1           0        1.067749   -1.433887   -0.543798
     29          1           0        1.934665    0.916683   -0.485827
     30          1           0        5.859571   -0.541356    0.457834
     31          1           0        5.005458   -2.896682    0.402941
     32          7           0        4.440347    1.673045    0.021629
     33          8           0        5.632389    1.833852    0.274247
     34          8           0        3.637015    2.575102   -0.205498
 ---------------------------------------------------------------------

 SCF Done:  E(RHF) =  -669.535508476     A.U. after   15 cycles
 E2 =    -0.2090950440D+01 EUMP2 =    -0.67162645891538D+03

 The electronic state is 1-A.
 Alpha  occ. eigenvalues --  -20.60689 -20.60684 -15.85741 -11.31084 -11.27652
 Alpha  occ. eigenvalues --  -11.27623 -11.27380 -11.26673 -11.26573 -11.22360
 Alpha  occ. eigenvalues --  -11.22179 -11.21919 -11.21899 -11.21773 -11.21313
 Alpha  occ. eigenvalues --   -1.59765  -1.39319  -1.19248  -1.08948  -1.08650
 Alpha  occ. eigenvalues --   -1.04644  -1.04102  -0.96585  -0.95490  -0.87627
 Alpha  occ. eigenvalues --   -0.86041  -0.82320  -0.80185  -0.78713  -0.77365
 Alpha  occ. eigenvalues --   -0.71960  -0.71088  -0.70365  -0.65568  -0.64898
 Alpha  occ. eigenvalues --   -0.64671  -0.62026  -0.61488  -0.59969  -0.58162
 Alpha  occ. eigenvalues --   -0.55855  -0.55163  -0.53470  -0.53008  -0.52976
 Alpha  occ. eigenvalues --   -0.52546  -0.50509  -0.48717  -0.48715  -0.48489
 Alpha  occ. eigenvalues --   -0.47177  -0.46269  -0.46158  -0.44730  -0.44338
 Alpha  occ. eigenvalues --   -0.37236  -0.36243
 Alpha virt. eigenvalues --    0.05154   0.11392   0.16643   0.20610   0.22471
 Alpha virt. eigenvalues --    0.23836   0.25803   0.26207   0.26887   0.28023
 Alpha virt. eigenvalues --    0.28878   0.30196   0.30800   0.31129   0.32022

 Mulliken charges:
               1
     1  C   -0.299768
     2  C   -0.299003
     3  C   -0.482959
     4  H    0.151068
     5  H    0.151764
     6  H    0.153489
     7  H    0.154493
     8  H    0.160898
     9  H    0.155591
    10  H    0.152396
    11  C   -0.298901
    12  C   -0.300184
    13  C   -0.476024
    14  H    0.149878
    15  H    0.150311
    16  H    0.152856
    17  H    0.153176
    18  H    0.155481
    19  H    0.155319
    20  H    0.161674
    21  C   -0.173116
    22  C   -0.226040
    23  C   -0.174383
    24  C    0.158840
    25  C   -0.171595
    26  C   -0.218351
    27  H    0.225003
    28  H    0.238063
    29  H    0.275524
    30  H    0.275122
    31  H    0.222822
    32  N    0.488069
    33  O   -0.460864
    34  O   -0.460651
 Sum of Mulliken charges =  -0.00000

 Dipole moment (field-independent basis, Debye):
    X=             -2.0532    Y=             -4.8658    Z=             -0.0947  Tot=              5.2821
 Quadrupole moment (field-independent basis, Debye-Ang):
   XX=           -105.3380   YY=            -97.6286   ZZ=            -94.3370
   XY=            -21.8238   XZ=              0.8154   YZ=             -0.3211

 Normal termination of Gaussian 16 at Thu May  6 18:45:45 2021.
