 Gaussian 16, Revision A.03,
 Gaussian 16:  EM64L-G16RevA.03 25-Dec-2016

 -------------
 #p 6-31g* mp2
 -------------

 ------------------------------------------------------
 Input file generated by CHIRIPA (05-May-2021 14:51:09)
 ------------------------------------------------------
 Symbolic Z-matrix:
 Charge =  0 Multiplicity = 1

                         Standard orientation:
 ---------------------------------------------------------------------
 Center     Atomic      Atomic             Coordinates (Angstroms)
 Number     Number       Type             X           Y           Z
 ---------------------------------------------------------------------
      1          6           0        3.030367   -0.006356   -0.371339
      2          6           0        2.729976   -1.374737    0.241265
      3          6           0        3.421591   -2.519102   -0.500281
      4          1           0        2.716041   -0.005989   -1.424024
      5          1           0        4.116830    0.157928   -0.369489
      6          1           0        1.644310   -1.535803    0.239525
      7          1           0        3.044878   -1.371783    1.292666
      8          1           0        4.508157   -2.385690   -0.487076
      9          1           0        3.099632   -2.550642   -1.546201
     10          1           0        3.193213   -3.488127   -0.045644
     11          6           0        2.346035    1.147776    0.359001
     12          6           0        2.646426    2.516157   -0.253603
     13          6           0        1.954812    3.660523    0.487943
     14          1           0        1.259572    0.983492    0.357151
     15          1           0        2.660361    1.147410    1.411685
     16          1           0        2.331524    2.513204   -1.305004
     17          1           0        3.732092    2.677224   -0.251863
     18          1           0        2.276770    3.692062    1.533863
     19          1           0        0.868245    3.527110    0.474738
     20          1           0        2.183189    4.629547    0.033305
     21          6           0       -2.284417   -1.148198   -0.288615
     22          6           0       -1.884787   -2.199547    0.747216
     23          6           0       -1.077492   -3.348489    0.142235
     24          1           0       -2.869225   -1.630121   -1.084036
     25          1           0       -1.377906   -0.749661   -0.764852
     26          1           0       -2.791706   -2.594988    1.222336
     27          1           0       -1.301025   -1.715029    1.540362
     28          1           0       -0.156571   -2.973038   -0.315524
     29          1           0       -1.655724   -3.857996   -0.635358
     30          1           0       -0.802348   -4.088527    0.900192
     31          6           0       -3.091985    0.006777    0.300954
     32          6           0       -3.491615    1.058126   -0.734878
     33          6           0       -4.298910    2.207068   -0.129897
     34          1           0       -3.998497   -0.391760    0.777190
     35          1           0       -2.507177    0.488700    1.096375
     36          1           0       -4.075377    0.573609   -1.528024
     37          1           0       -2.584695    1.453566   -1.209998
     38          1           0       -3.720679    2.716575    0.647697
     39          1           0       -5.219831    1.831617    0.327863
     40          1           0       -4.574054    2.947106   -0.887854
 ---------------------------------------------------------------------

 SCF Done:  E(RHF) =  -470.733319006     A.U. after   11 cycles
 E2 =    -0.1583297230D+01 EUMP2 =    -0.47231661623621D+03

 The electronic state is 1-A.
 Alpha  occ. eigenvalues --  -11.21648 -11.21641 -11.21628 -11.21619 -11.21458
 Alpha  occ. eigenvalues --  -11.21452 -11.21395 -11.21391 -11.21115 -11.21096
 Alpha  occ. eigenvalues --  -11.21089 -11.21069  -1.08491  -1.08456  -1.03596
 Alpha  occ. eigenvalues --   -1.03535  -0.96039  -0.95988  -0.87034  -0.87023
 Alpha  occ. eigenvalues --   -0.79662  -0.79593  -0.78313  -0.78262  -0.65267
 Alpha  occ. eigenvalues --   -0.64964  -0.61185  -0.60774  -0.59382  -0.59373
 Alpha  occ. eigenvalues --   -0.57663  -0.57588  -0.55441  -0.55163  -0.52713
 Alpha  occ. eigenvalues --   -0.52691  -0.52443  -0.52426  -0.50030  -0.49894
 Alpha  occ. eigenvalues --   -0.48030  -0.47867  -0.46792  -0.46528  -0.45974
 Alpha  occ. eigenvalues --   -0.45806  -0.45775  -0.45538  -0.43828  -0.43811
 Alpha virt. eigenvalues --    0.19415   0.22717   0.23682   0.24847   0.25790
 Alpha virt. eigenvalues --    0.26857   0.27003   0.27555   0.28637   0.29845
 Alpha virt. eigenvalues --    0.30512   0.31578   0.31634   0.31931   0.32022

 Mulliken charges:
               1
     1  C   -0.297756
     2  C   -0.307202
     3  C   -0.475809
     4  H    0.149450
     5  H    0.149866
     6  H    0.158155
     7  H    0.152225
     8  H    0.155390
     9  H    0.155036
    10  H    0.161258
    11  C   -0.299185
    12  C   -0.299685
    13  C   -0.475657
    14  H    0.149137
    15  H    0.149933
    16  H    0.152007
    17  H    0.152262
    18  H    0.155298
    19  H    0.154769
    20  H    0.160563
    21  C   -0.299430
    22  C   -0.300530
    23  C   -0.480562
    24  H    0.150022
    25  H    0.149017
    26  H    0.152324
    27  H    0.152844
    28  H    0.160165
    29  H    0.155267
    30  H    0.160452
    31  C   -0.298521
    32  C   -0.299608
    33  C   -0.475749
    34  H    0.149877
    35  H    0.149883
    36  H    0.152110
    37  H    0.151335
    38  H    0.155290
    39  H    0.155348
    40  H    0.160409
 Sum of Mulliken charges =  -0.00000

 Dipole moment (field-independent basis, Debye):
    X=              0.0053    Y=             -0.0104    Z=              0.0079  Tot=              0.0141
 Quadrupole moment (field-independent basis, Debye-Ang):
   XX=            -83.7753   YY=            -86.1391   ZZ=            -84.6415
   XY=              1.4521   XZ=              1.0298   YZ=             -0.5082

 Normal termination of Gaussian 16 at Wed May  5 16:38:40 2021.
