 Gaussian 16, Revision A.03,
 Gaussian 16:  EM64L-G16RevA.03 25-Dec-2016

 -------------
 #p 6-31g* mp2
 -------------

 ------------------------------------------------------
 Input file generated by CHIRIPA (05-May-2021 14:53:13)
 ------------------------------------------------------
 Symbolic Z-matrix:
 Charge =  0 Multiplicity = 1

                         Standard orientation:
 ---------------------------------------------------------------------
 Center     Atomic      Atomic             Coordinates (Angstroms)
 Number     Number       Type             X           Y           Z
 ---------------------------------------------------------------------
      1          6           0       -4.285347    0.267449    0.446607
      2          6           0       -3.758091    1.702661    0.458902
      3          6           0       -2.349066    1.809825    1.042820
      4          1           0       -4.280868   -0.126869    1.472003
      5          1           0       -3.597933   -0.363357   -0.133859
      6          1           0       -4.447024    2.330848    1.038011
      7          1           0       -3.764006    2.093674   -0.566618
      8          1           0       -1.644180    1.206869    0.461287
      9          1           0       -2.331078    1.445391    2.075034
     10          1           0       -1.991762    2.844326    1.042002
     11          6           0       -5.692859    0.144084   -0.134273
     12          6           0       -6.220115   -1.291128   -0.146568
     13          6           0       -7.629139   -1.398292   -0.730486
     14          1           0       -6.380273    0.774890    0.446193
     15          1           0       -5.697338    0.538402   -1.159670
     16          1           0       -6.214200   -1.682141    0.878952
     17          1           0       -5.531182   -1.919315   -0.725678
     18          1           0       -7.647127   -1.033858   -1.762700
     19          1           0       -8.334026   -0.795336   -0.148954
     20          1           0       -7.986444   -2.432793   -0.729668
     21          6           0        1.411101    0.156602   -0.408101
     22          6           0        2.304310    1.053427   -1.003419
     23          6           0        3.684133    0.887344   -0.851583
     24          6           0        4.138136   -0.191436   -0.094346
     25          6           0        3.273464   -1.101919    0.511172
     26          6           0        1.897671   -0.916318    0.345965
     27          1           0        0.340787    0.293200   -0.531243
     28          1           0        1.929280    1.887576   -1.589585
     29          1           0        4.397909    1.566675   -1.301527
     30          1           0        3.677308   -1.923888    1.089701
     31          1           0        1.206329   -1.614372    0.809443
     32          7           0        5.596758   -0.377592    0.073472
     33          8           0        5.971412   -1.336064    0.745487
     34          8           0        6.337756    0.438495   -0.470183
 ---------------------------------------------------------------------

 SCF Done:  E(RHF) =  -669.535414437     A.U. after   15 cycles
 E2 =    -0.2090743661D+01 EUMP2 =    -0.67162615809827D+03

 The electronic state is 1-A.
 Alpha  occ. eigenvalues --  -20.60732 -20.60727 -15.85786 -11.31147 -11.27716
 Alpha  occ. eigenvalues --  -11.27712 -11.27443 -11.26730 -11.26720 -11.22488
 Alpha  occ. eigenvalues --  -11.22213 -11.22186 -11.22174 -11.22027 -11.21544
 Alpha  occ. eigenvalues --   -1.59808  -1.39361  -1.19319  -1.09182  -1.08714
 Alpha  occ. eigenvalues --   -1.04722  -1.04286  -0.96749  -0.95551  -0.87765
 Alpha  occ. eigenvalues --   -0.86118  -0.82386  -0.80353  -0.78974  -0.77430
 Alpha  occ. eigenvalues --   -0.72004  -0.71131  -0.70451  -0.65813  -0.64971
 Alpha  occ. eigenvalues --   -0.64727  -0.62070  -0.61692  -0.60118  -0.58351
 Alpha  occ. eigenvalues --   -0.56141  -0.55181  -0.53427  -0.53163  -0.53035
 Alpha  occ. eigenvalues --   -0.52814  -0.50685  -0.48768  -0.48759  -0.48657
 Alpha  occ. eigenvalues --   -0.47383  -0.46519  -0.46430  -0.44768  -0.44527
 Alpha  occ. eigenvalues --   -0.37291  -0.36327
 Alpha virt. eigenvalues --    0.05093   0.11329   0.16538   0.19722   0.22404
 Alpha virt. eigenvalues --    0.23698   0.25310   0.26336   0.27026   0.27375
 Alpha virt. eigenvalues --    0.28695   0.30345   0.30951   0.31372   0.32442

 Mulliken charges:
               1
     1  C   -0.297936
     2  C   -0.300072
     3  C   -0.478208
     4  H    0.151162
     5  H    0.144607
     6  H    0.156171
     7  H    0.152269
     8  H    0.143706
     9  H    0.159666
    10  H    0.164114
    11  C   -0.298712
    12  C   -0.300067
    13  C   -0.476084
    14  H    0.151531
    15  H    0.150310
    16  H    0.152671
    17  H    0.151330
    18  H    0.155748
    19  H    0.156243
    20  H    0.161738
    21  C   -0.173914
    22  C   -0.220421
    23  C   -0.170885
    24  C    0.158473
    25  C   -0.170912
    26  C   -0.220537
    27  H    0.232952
    28  H    0.223566
    29  H    0.275441
    30  H    0.275477
    31  H    0.223630
    32  N    0.488015
    33  O   -0.460531
    34  O   -0.460540
 Sum of Mulliken charges =  -0.00000

 Dipole moment (field-independent basis, Debye):
    X=             -5.3561    Y=              0.6982    Z=             -0.5434  Tot=              5.4287
 Quadrupole moment (field-independent basis, Debye-Ang):
   XX=           -137.8118   YY=            -91.8645   ZZ=            -92.8947
   XY=              4.0918   XZ=             -3.4281   YZ=             -2.5071

 Normal termination of Gaussian 16 at Thu May  6 05:45:08 2021.
