 Gaussian 16, Revision A.03,
 Gaussian 16:  EM64L-G16RevA.03 25-Dec-2016

 -------------
 #p 6-31g* mp2
 -------------

 ------------------------------------------------------
 Input file generated by CHIRIPA (05-May-2021 14:51:12)
 ------------------------------------------------------
 Symbolic Z-matrix:
 Charge =  0 Multiplicity = 1

                         Standard orientation:
 ---------------------------------------------------------------------
 Center     Atomic      Atomic             Coordinates (Angstroms)
 Number     Number       Type             X           Y           Z
 ---------------------------------------------------------------------
      1          6           0       -2.387264   -0.821255    0.249884
      2          6           0       -1.562225   -0.673817    1.528772
      3          6           0       -0.258772   -1.471961    1.486685
      4          1           0       -2.611642   -1.884205    0.086366
      5          1           0       -1.783242   -0.493789   -0.607623
      6          1           0       -2.168105   -1.000161    2.383772
      7          1           0       -1.339948    0.388924    1.689367
      8          1           0        0.368430   -1.141665    0.652345
      9          1           0       -0.464433   -2.538643    1.350695
     10          1           0        0.315297   -1.352252    2.410793
     11          6           0       -3.693262   -0.029186    0.276785
     12          6           0       -4.518302   -0.176624   -1.002104
     13          6           0       -5.821755    0.621520   -0.960017
     14          1           0       -4.297285   -0.356652    1.134292
     15          1           0       -3.468885    1.033764    0.440302
     16          1           0       -4.740579   -1.239365   -1.162699
     17          1           0       -3.912422    0.149720   -1.857104
     18          1           0       -5.616094    1.688202   -0.824027
     19          1           0       -6.448957    0.291224   -0.125677
     20          1           0       -6.395824    0.501811   -1.884124
     21          6           0        3.233196   -0.136563   -0.743551
     22          6           0        3.533707   -1.459975   -0.039095
     23          6           0        3.918153   -2.574137   -1.013076
     24          1           0        2.420610   -0.289780   -1.466860
     25          1           0        4.114420    0.170292   -1.323793
     26          1           0        2.652663   -1.763542    0.540754
     27          1           0        4.345541   -1.303546    0.682757
     28          1           0        4.810619   -2.296484   -1.583176
     29          1           0        3.108121   -2.759094   -1.725987
     30          1           0        4.128749   -3.511194   -0.488258
     31          6           0        2.847331    0.987004    0.216883
     32          6           0        2.546820    2.310416   -0.487573
     33          6           0        2.162374    3.424578    0.486408
     34          1           0        1.966107    0.680149    0.797125
     35          1           0        3.659916    1.140221    0.940191
     36          1           0        1.734986    2.153987   -1.209425
     37          1           0        3.427864    2.613983   -1.067422
     38          1           0        2.972406    3.609535    1.199318
     39          1           0        1.269909    3.146926    1.056507
     40          1           0        1.951778    4.361635   -0.038410
 ---------------------------------------------------------------------

 SCF Done:  E(RHF) =  -470.732461419     A.U. after   11 cycles
 E2 =    -0.1583855125D+01 EUMP2 =    -0.47231631654447D+03

 The electronic state is 1-A.
 Alpha  occ. eigenvalues --  -11.21692 -11.21643 -11.21603 -11.21483 -11.21472
 Alpha  occ. eigenvalues --  -11.21408 -11.21368 -11.21303 -11.21147 -11.21101
 Alpha  occ. eigenvalues --  -11.21087 -11.21008  -1.08505  -1.08398  -1.03604
 Alpha  occ. eigenvalues --   -1.03493  -0.96063  -0.95946  -0.87083  -0.86964
 Alpha  occ. eigenvalues --   -0.79701  -0.79540  -0.78326  -0.78190  -0.65296
 Alpha  occ. eigenvalues --   -0.64936  -0.61014  -0.60887  -0.59418  -0.59318
 Alpha  occ. eigenvalues --   -0.57654  -0.57562  -0.55472  -0.55127  -0.52777
 Alpha  occ. eigenvalues --   -0.52634  -0.52478  -0.52368  -0.50029  -0.49899
 Alpha  occ. eigenvalues --   -0.48032  -0.47850  -0.46789  -0.46575  -0.45925
 Alpha  occ. eigenvalues --   -0.45795  -0.45732  -0.45375  -0.43837  -0.43745
 Alpha virt. eigenvalues --    0.20509   0.23031   0.23840   0.24637   0.26190
 Alpha virt. eigenvalues --    0.26574   0.26942   0.27516   0.28029   0.29766
 Alpha virt. eigenvalues --    0.30210   0.31492   0.31662   0.31857   0.32430

 Mulliken charges:
               1
     1  C   -0.298433
     2  C   -0.301221
     3  C   -0.481183
     4  H    0.149984
     5  H    0.149156
     6  H    0.152635
     7  H    0.151821
     8  H    0.160709
     9  H    0.155843
    10  H    0.161059
    11  C   -0.298374
    12  C   -0.299698
    13  C   -0.475761
    14  H    0.149769
    15  H    0.149794
    16  H    0.152033
    17  H    0.151924
    18  H    0.155304
    19  H    0.155270
    20  H    0.160406
    21  C   -0.298640
    22  C   -0.307103
    23  C   -0.475191
    24  H    0.148205
    25  H    0.149831
    26  H    0.161294
    27  H    0.151430
    28  H    0.154728
    29  H    0.154759
    30  H    0.160098
    31  C   -0.304483
    32  C   -0.299153
    33  C   -0.475607
    34  H    0.155919
    35  H    0.149694
    36  H    0.150949
    37  H    0.152056
    38  H    0.155428
    39  H    0.154566
    40  H    0.160183
 Sum of Mulliken charges =  -0.00000

 Dipole moment (field-independent basis, Debye):
    X=             -0.0378    Y=             -0.0231    Z=              0.0335  Tot=              0.0555
 Quadrupole moment (field-independent basis, Debye-Ang):
   XX=            -84.6871   YY=            -85.1730   ZZ=            -84.9816
   XY=              1.4581   XZ=              0.0148   YZ=             -0.8096

 Normal termination of Gaussian 16 at Thu May  6 05:30:52 2021.
