 Gaussian 16, Revision A.03,
 Gaussian 16:  EM64L-G16RevA.03 25-Dec-2016

 -------------
 #p 6-31g* mp2
 -------------

 ------------------------------------------------------
 Input file generated by CHIRIPA (05-May-2021 14:57:21)
 ------------------------------------------------------
 Symbolic Z-matrix:
 Charge =  0 Multiplicity = 1

                         Standard orientation:
 ---------------------------------------------------------------------
 Center     Atomic      Atomic             Coordinates (Angstroms)
 Number     Number       Type             X           Y           Z
 ---------------------------------------------------------------------
      1          6           0       -5.795353    1.085269   -0.727132
      2          6           0       -5.210027    0.059417   -1.476495
      3          6           0       -4.079583   -0.611423   -1.000452
      4          6           0       -3.558294   -0.228897    0.234547
      5          6           0       -4.118749    0.789103    1.004519
      6          6           0       -5.248809    1.446201    0.508804
      7          1           0       -6.673360    1.601056   -1.104575
      8          1           0       -5.632330   -0.223007   -2.436673
      9          1           0       -3.606397   -1.409205   -1.559967
     10          1           0       -3.675121    1.048300    1.958159
     11          1           0       -5.701279    2.242513    1.092930
     12          7           0       -2.361747   -0.931811    0.748925
     13          8           0       -1.921617   -0.575946    1.839926
     14          8           0       -1.886679   -1.825311    0.051354
     15          6           0        3.253181   -2.358705   -0.213339
     16          6           0        2.227477   -1.430406   -0.420016
     17          6           0        2.494260   -0.058441   -0.387017
     18          6           0        3.804061    0.352008   -0.143625
     19          6           0        4.847482   -0.548325    0.066056
     20          6           0        4.557609   -1.915482    0.028611
     21          1           0        3.036970   -3.422612   -0.240701
     22          1           0        1.213500   -1.771738   -0.608134
     23          1           0        1.719153    0.681882   -0.543699
     24          1           0        5.848356   -0.177717    0.251309
     25          1           0        5.356172   -2.634139    0.189468
     26          7           0        4.098715    1.801900   -0.106337
     27          8           0        5.261018    2.137882    0.110009
     28          8           0        3.161782    2.574891   -0.294163
 ---------------------------------------------------------------------

 SCF Done:  E(RHF) =  -868.340208463     A.U. after   16 cycles
 E2 =    -0.2598293943D+01 EUMP2 =    -0.87093850240631D+03

 The electronic state is 1-A.
 Alpha  occ. eigenvalues --  -20.61594 -20.61541 -20.60067 -20.60062 -15.86586
 Alpha  occ. eigenvalues --  -15.85109 -11.31674 -11.30273 -11.28230 -11.28185
 Alpha  occ. eigenvalues --  -11.27896 -11.27168 -11.27137 -11.26839 -11.26731
 Alpha  occ. eigenvalues --  -11.26459 -11.25845 -11.25565  -1.60630  -1.59145
 Alpha  occ. eigenvalues --   -1.40190  -1.38704  -1.19819  -1.18400  -1.09266
 Alpha  occ. eigenvalues --   -1.07831  -1.05179  -1.03753  -0.96146  -0.94711
 Alpha  occ. eigenvalues --   -0.86590  -0.85159  -0.82988  -0.81537  -0.78068
 Alpha  occ. eigenvalues --   -0.76614  -0.72814  -0.71934  -0.71337  -0.70923
 Alpha  occ. eigenvalues --   -0.70461  -0.69519  -0.65475  -0.65177  -0.64044
 Alpha  occ. eigenvalues --   -0.63717  -0.62529  -0.61093  -0.55688  -0.54268
 Alpha  occ. eigenvalues --   -0.53523  -0.53266  -0.52115  -0.51820  -0.49583
 Alpha  occ. eigenvalues --   -0.49539  -0.48101  -0.48070  -0.45649  -0.44155
 Alpha  occ. eigenvalues --   -0.37781  -0.36767  -0.36375  -0.35344
 Alpha virt. eigenvalues --    0.04418   0.05882   0.10891   0.12306   0.15959
 Alpha virt. eigenvalues --    0.17443   0.21055   0.22522   0.26990   0.27859
 Alpha virt. eigenvalues --    0.28541   0.29245   0.30652   0.31972   0.32287

 Mulliken charges:
               1
     1  C   -0.169577
     2  C   -0.218335
     3  C   -0.170930
     4  C    0.157259
     5  C   -0.169767
     6  C   -0.218286
     7  H    0.227816
     8  H    0.224778
     9  H    0.273880
    10  H    0.277536
    11  H    0.226052
    12  N    0.488498
    13  O   -0.455041
    14  O   -0.470464
    15  C   -0.172110
    16  C   -0.222021
    17  C   -0.171438
    18  C    0.158040
    19  C   -0.173210
    20  C   -0.218514
    21  H    0.225333
    22  H    0.243471
    23  H    0.272927
    24  H    0.272098
    25  H    0.219892
    26  N    0.488302
    27  O   -0.463302
    28  O   -0.462888
 Sum of Mulliken charges =  -0.00000

 Dipole moment (field-independent basis, Debye):
    X=             -5.7587    Y=             -2.6364    Z=             -1.8853  Tot=              6.6081
 Quadrupole moment (field-independent basis, Debye-Ang):
   XX=            -79.0123   YY=           -108.9700   ZZ=           -103.0398
   XY=            -29.7570   XZ=              6.2038   YZ=              4.2493

 Normal termination of Gaussian 16 at Wed May  5 16:15:43 2021.
