 Gaussian 16, Revision A.03,
 Gaussian 16:  EM64L-G16RevA.03 25-Dec-2016

 -------------
 #p 6-31g* mp2
 -------------

 ------------------------------------------------------
 Input file generated by CHIRIPA (05-May-2021 14:51:08)
 ------------------------------------------------------
 Symbolic Z-matrix:
 Charge =  0 Multiplicity = 1

                         Standard orientation:
 ---------------------------------------------------------------------
 Center     Atomic      Atomic             Coordinates (Angstroms)
 Number     Number       Type             X           Y           Z
 ---------------------------------------------------------------------
      1          6           0       -2.836865    1.435771    0.203130
      2          6           0       -1.478085    1.735831   -0.430643
      3          6           0       -0.874368    3.051896    0.060572
      4          1           0       -3.527070    2.261885   -0.016181
      5          1           0       -2.724943    1.403672    1.295759
      6          1           0       -1.592267    1.765985   -1.521820
      7          1           0       -0.791090    0.908817   -0.209960
      8          1           0       -0.731736    3.028970    1.145806
      9          1           0       -1.537465    3.891009   -0.173508
     10          1           0        0.096700    3.246700   -0.405193
     11          6           0       -3.453183    0.123369   -0.277996
     12          6           0       -4.811962   -0.176692    0.355776
     13          6           0       -5.415679   -1.492757   -0.135439
     14          1           0       -3.565104    0.155468   -1.370625
     15          1           0       -2.762977   -0.702745   -0.058686
     16          1           0       -5.498957    0.650323    0.135094
     17          1           0       -4.697780   -0.206845    1.446954
     18          1           0       -4.752582   -2.331869    0.098642
     19          1           0       -5.558311   -1.469830   -1.220672
     20          1           0       -6.386748   -1.687560    0.330326
     21          6           0        3.487104   -0.141704    0.281441
     22          6           0        4.850695    0.100954   -0.366420
     23          6           0        5.522570    1.380823    0.131888
     24          1           0        2.834443    0.718880    0.080510
     25          1           0        3.610901   -0.192191    1.372093
     26          1           0        4.724565    0.149589   -1.455613
     27          1           0        5.500124   -0.760393   -0.164086
     28          1           0        5.677387    1.338127    1.214852
     29          1           0        4.897421    2.253278   -0.084014
     30          1           0        6.495980    1.534781   -0.344167
     31          6           0        2.802943   -1.417436   -0.206574
     32          6           0        1.439353   -1.660094    0.441287
     33          6           0        0.767477   -2.939963   -0.057022
     34          1           0        2.679146   -1.366948   -1.297225
     35          1           0        3.455604   -2.278020   -0.005644
     36          1           0        0.789924   -0.798746    0.238953
     37          1           0        1.565482   -1.708727    1.530480
     38          1           0        1.392625   -3.812417    0.158880
     39          1           0        0.612661   -2.897266   -1.139985
     40          1           0       -0.205934   -3.093921    0.419033
 ---------------------------------------------------------------------

 SCF Done:  E(RHF) =  -470.733430687     A.U. after   11 cycles
 E2 =    -0.1583046484D+01 EUMP2 =    -0.47231647717117D+03

 The electronic state is 1-A.
 Alpha  occ. eigenvalues --  -11.21628 -11.21626 -11.21608 -11.21607 -11.21420
 Alpha  occ. eigenvalues --  -11.21418 -11.21360 -11.21358 -11.21110 -11.21106
 Alpha  occ. eigenvalues --  -11.21073 -11.21072  -1.08460  -1.08435  -1.03564
 Alpha  occ. eigenvalues --   -1.03535  -0.95998  -0.95993  -0.87023  -0.87000
 Alpha  occ. eigenvalues --   -0.79679  -0.79556  -0.78315  -0.78206  -0.65183
 Alpha  occ. eigenvalues --   -0.64986  -0.61064  -0.60839  -0.59390  -0.59341
 Alpha  occ. eigenvalues --   -0.57614  -0.57602  -0.55284  -0.55278  -0.52702
 Alpha  occ. eigenvalues --   -0.52684  -0.52446  -0.52397  -0.50005  -0.49883
 Alpha  occ. eigenvalues --   -0.48085  -0.47833  -0.46896  -0.46470  -0.45971
 Alpha  occ. eigenvalues --   -0.45765  -0.45757  -0.45391  -0.43803  -0.43800
 Alpha virt. eigenvalues --    0.20475   0.23036   0.23914   0.23960   0.25907
 Alpha virt. eigenvalues --    0.26861   0.27146   0.27238   0.28316   0.29116
 Alpha virt. eigenvalues --    0.30252   0.31578   0.31690   0.31709   0.32192

 Mulliken charges:
               1
     1  C   -0.297446
     2  C   -0.310286
     3  C   -0.475154
     4  H    0.149774
     5  H    0.149657
     6  H    0.151887
     7  H    0.160991
     8  H    0.155650
     9  H    0.155483
    10  H    0.159525
    11  C   -0.299117
    12  C   -0.299711
    13  C   -0.475676
    14  H    0.149519
    15  H    0.150224
    16  H    0.151985
    17  H    0.151968
    18  H    0.155230
    19  H    0.155217
    20  H    0.160265
    21  C   -0.298761
    22  C   -0.299708
    23  C   -0.475699
    24  H    0.149876
    25  H    0.149521
    26  H    0.151988
    27  H    0.151982
    28  H    0.155205
    29  H    0.155248
    30  H    0.160276
    31  C   -0.297463
    32  C   -0.310321
    33  C   -0.475346
    34  H    0.149695
    35  H    0.149774
    36  H    0.160993
    37  H    0.151907
    38  H    0.155502
    39  H    0.155763
    40  H    0.159583
 Sum of Mulliken charges =  -0.00000

 Dipole moment (field-independent basis, Debye):
    X=              0.0011    Y=             -0.0008    Z=             -0.0009  Tot=              0.0016
 Quadrupole moment (field-independent basis, Debye-Ang):
   XX=            -85.0301   YY=            -85.9121   ZZ=            -83.7628
   XY=             -1.5723   XZ=              0.3935   YZ=             -1.2412

 Normal termination of Gaussian 16 at Thu May  6 08:26:21 2021.
