 Gaussian 16, Revision A.03,
 Gaussian 16:  EM64L-G16RevA.03 25-Dec-2016

 -------------
 #p 6-31g* mp2
 -------------

 ------------------------------------------------------
 Input file generated by CHIRIPA (05-May-2021 14:55:20)
 ------------------------------------------------------
 Symbolic Z-matrix:
 Charge =  0 Multiplicity = 1

                         Standard orientation:
 ---------------------------------------------------------------------
 Center     Atomic      Atomic             Coordinates (Angstroms)
 Number     Number       Type             X           Y           Z
 ---------------------------------------------------------------------
      1          6           0       -0.332753   -0.476518    1.221000
      2          6           0       -0.930451    0.788108    1.221663
      3          6           0       -2.197226    0.975005    0.660503
      4          6           0       -2.840746   -0.129682    0.104771
      5          6           0       -2.271510   -1.402084    0.088798
      6          6           0       -1.004007   -1.565657    0.655567
      7          1           0        0.651591   -0.612645    1.659101
      8          1           0       -0.411484    1.635756    1.660080
      9          1           0       -2.683120    1.943073    0.647504
     10          1           0       -2.813467   -2.228008   -0.355667
     11          1           0       -0.542256   -2.548931    0.653636
     12          7           0       -4.182209    0.055832   -0.492273
     13          8           0       -4.728362   -0.933485   -0.975601
     14          8           0       -4.662095    1.187042   -0.465601
     15          6           0        3.259287    0.866622    0.110140
     16          6           0        3.038262    2.057621   -0.822948
     17          6           0        2.852086    3.373851   -0.067521
     18          1           0        2.403586    0.780812    0.793775
     19          1           0        4.141514    1.059061    0.736269
     20          1           0        2.157527    1.862389   -1.448094
     21          1           0        3.894499    2.140490   -1.504568
     22          1           0        3.733208    3.595401    0.543331
     23          1           0        1.986368    3.315720    0.600127
     24          1           0        2.695588    4.211946   -0.753791
     25          6           0        3.447033   -0.456364   -0.630258
     26          6           0        3.668059   -1.647363    0.302831
     27          6           0        3.854235   -2.963594   -0.452597
     28          1           0        2.564806   -0.648803   -1.256387
     29          1           0        4.302734   -0.370555   -1.313893
     30          1           0        2.811822   -1.730231    0.984451
     31          1           0        4.548793   -1.452130    0.927977
     32          1           0        4.719953   -2.905461   -1.120244
     33          1           0        2.973112   -3.185143   -1.063448
     34          1           0        4.010732   -3.801688    0.233673
 ---------------------------------------------------------------------

 SCF Done:  E(RHF) =  -669.534989333     A.U. after   15 cycles
 E2 =    -0.2093071905D+01 EUMP2 =    -0.67162806123812D+03

 The electronic state is 1-A.
 Alpha  occ. eigenvalues --  -20.60790 -20.60785 -15.85844 -11.31225 -11.27799
 Alpha  occ. eigenvalues --  -11.27796 -11.27510 -11.26816 -11.26802 -11.22686
 Alpha  occ. eigenvalues --  -11.22382 -11.22324 -11.22252 -11.21959 -11.21858
 Alpha  occ. eigenvalues --   -1.59865  -1.39418  -1.19401  -1.09364  -1.08786
 Alpha  occ. eigenvalues --   -1.04806  -1.04416  -0.96855  -0.95626  -0.87869
 Alpha  occ. eigenvalues --   -0.86202  -0.82461  -0.80486  -0.79187  -0.77499
 Alpha  occ. eigenvalues --   -0.72062  -0.71189  -0.70565  -0.66010  -0.65054
 Alpha  occ. eigenvalues --   -0.64768  -0.62185  -0.61790  -0.60219  -0.58469
 Alpha  occ. eigenvalues --   -0.56200  -0.55280  -0.53529  -0.53283  -0.53119
 Alpha  occ. eigenvalues --   -0.52892  -0.50809  -0.48836  -0.48817  -0.48786
 Alpha  occ. eigenvalues --   -0.47534  -0.46705  -0.46592  -0.44821  -0.44670
 Alpha  occ. eigenvalues --   -0.37354  -0.36408
 Alpha virt. eigenvalues --    0.05005   0.11138   0.16385   0.18744   0.21871
 Alpha virt. eigenvalues --    0.23155   0.25132   0.26047   0.26300   0.27402
 Alpha virt. eigenvalues --    0.29665   0.30464   0.30935   0.31486   0.31873

 Mulliken charges:
               1
     1  C   -0.173424
     2  C   -0.221044
     3  C   -0.170934
     4  C    0.158380
     5  C   -0.170794
     6  C   -0.221303
     7  H    0.232069
     8  H    0.225246
     9  H    0.275930
    10  H    0.275799
    11  H    0.223811
    12  N    0.488053
    13  O   -0.460328
    14  O   -0.460253
    15  C   -0.299225
    16  C   -0.301081
    17  C   -0.475347
    18  H    0.139338
    19  H    0.151685
    20  H    0.156395
    21  H    0.155374
    22  H    0.156967
    23  H    0.147831
    24  H    0.164829
    25  C   -0.300634
    26  C   -0.301145
    27  C   -0.476486
    28  H    0.153481
    29  H    0.154314
    30  H    0.140247
    31  H    0.155769
    32  H    0.159797
    33  H    0.155048
    34  H    0.161636
 Sum of Mulliken charges =  -0.00000

 Dipole moment (field-independent basis, Debye):
    X=              4.8854    Y=             -0.6360    Z=              1.9488  Tot=              5.2981
 Quadrupole moment (field-independent basis, Debye-Ang):
   XX=           -120.5281   YY=            -90.6397   ZZ=            -94.9649
   XY=              1.7422   XZ=             -5.8867   YZ=              0.5032

 Normal termination of Gaussian 16 at Wed May  5 17:23:17 2021.
