 Gaussian 16, Revision A.03,
 Gaussian 16:  EM64L-G16RevA.03 25-Dec-2016

 -------------
 #p 6-31g* mp2
 -------------

 ------------------------------------------------------
 Input file generated by CHIRIPA (05-May-2021 14:57:25)
 ------------------------------------------------------
 Symbolic Z-matrix:
 Charge =  0 Multiplicity = 1

                         Standard orientation:
 ---------------------------------------------------------------------
 Center     Atomic      Atomic             Coordinates (Angstroms)
 Number     Number       Type             X           Y           Z
 ---------------------------------------------------------------------
      1          6           0        4.104094    1.437395   -1.375066
      2          6           0        4.350449    0.066756   -1.243998
      3          6           0        3.650099   -0.693701   -0.302848
      4          6           0        2.706155   -0.048233    0.494417
      5          6           0        2.438194    1.315620    0.387682
      6          6           0        3.150434    2.056361   -0.560244
      7          1           0        4.652761    2.020479   -2.108805
      8          1           0        5.090499   -0.416603   -1.875453
      9          1           0        3.820954   -1.756347   -0.180335
     10          1           0        1.694421    1.769411    1.031339
     11          1           0        2.957030    3.120656   -0.659827
     12          7           0        1.958432   -0.842859    1.494357
     13          8           0        1.131927   -0.250523    2.184766
     14          8           0        2.213030   -2.042975    1.568766
     15          6           0       -4.693968    1.391565    0.516389
     16          6           0       -3.363859    1.807872    0.634799
     17          6           0       -2.322670    0.999165    0.169542
     18          6           0       -2.649129   -0.225261   -0.411403
     19          6           0       -3.964382   -0.667860   -0.543708
     20          6           0       -4.989463    0.157203   -0.071452
     21          1           0       -5.496532    2.026141    0.880531
     22          1           0       -3.131410    2.765994    1.090886
     23          1           0       -1.284151    1.296907    0.248569
     24          1           0       -4.164865   -1.628226   -1.002972
     25          1           0       -6.021520   -0.168679   -0.164737
     26          7           0       -1.555394   -1.090061   -0.907655
     27          8           0       -1.869375   -2.164339   -1.415572
     28          8           0       -0.404855   -0.677238   -0.779305
 ---------------------------------------------------------------------

 SCF Done:  E(RHF) =  -868.338573691     A.U. after   16 cycles
 E2 =    -0.2601432708D+01 EUMP2 =    -0.87094000639871D+03

 The electronic state is 1-A.
 Alpha  occ. eigenvalues --  -20.60534 -20.60492 -20.59859 -20.59791 -15.85568
 Alpha  occ. eigenvalues --  -15.84880 -11.30850 -11.30273 -11.27436 -11.27431
 Alpha  occ. eigenvalues --  -11.27196 -11.26966 -11.26821 -11.26682 -11.26451
 Alpha  occ. eigenvalues --  -11.26441 -11.26019 -11.25923  -1.59566  -1.58855
 Alpha  occ. eigenvalues --   -1.39133  -1.38433  -1.19028  -1.18459  -1.08443
 Alpha  occ. eigenvalues --   -1.07854  -1.04434  -1.03925  -0.95296  -0.94701
 Alpha  occ. eigenvalues --   -0.85837  -0.85325  -0.82155  -0.81572  -0.77204
 Alpha  occ. eigenvalues --   -0.76591  -0.71928  -0.71153  -0.70913  -0.70178
 Alpha  occ. eigenvalues --   -0.69908  -0.69656  -0.64699  -0.64461  -0.64164
 Alpha  occ. eigenvalues --   -0.63985  -0.61799  -0.61307  -0.54961  -0.54463
 Alpha  occ. eigenvalues --   -0.52749  -0.52547  -0.52174  -0.52064  -0.48568
 Alpha  occ. eigenvalues --   -0.48538  -0.47888  -0.47874  -0.44613  -0.43782
 Alpha  occ. eigenvalues --   -0.37008  -0.36393  -0.36021  -0.35509
 Alpha virt. eigenvalues --    0.05336   0.06036   0.11636   0.12079   0.16846
 Alpha virt. eigenvalues --    0.17491   0.21087   0.22246   0.26121   0.27947
 Alpha virt. eigenvalues --    0.28374   0.29480   0.30685   0.31739   0.32397

 Mulliken charges:
               1
     1  C   -0.171158
     2  C   -0.217922
     3  C   -0.166776
     4  C    0.176110
     5  C   -0.168046
     6  C   -0.218460
     7  H    0.221729
     8  H    0.221042
     9  H    0.275615
    10  H    0.264305
    11  H    0.216914
    12  N    0.497164
    13  O   -0.471788
    14  O   -0.458794
    15  C   -0.170236
    16  C   -0.218993
    17  C   -0.163781
    18  C    0.158702
    19  C   -0.169972
    20  C   -0.218938
    21  H    0.224428
    22  H    0.221279
    23  H    0.274023
    24  H    0.275196
    25  H    0.222467
    26  N    0.494898
    27  O   -0.458307
    28  O   -0.470700
 Sum of Mulliken charges =  -0.00000

 Dipole moment (field-independent basis, Debye):
    X=             -1.3143    Y=              5.5464    Z=             -1.8134  Tot=              5.9815
 Quadrupole moment (field-independent basis, Debye-Ang):
   XX=            -67.9573   YY=           -101.6143   ZZ=           -110.7876
   XY=              0.0107   XZ=            -11.3114   YZ=              2.4418

 Normal termination of Gaussian 16 at Thu May  6 08:18:32 2021.
