 Gaussian 16, Revision A.03,
 Gaussian 16:  EM64L-G16RevA.03 25-Dec-2016

 -------------
 #p 6-31g* mp2
 -------------

 ------------------------------------------------------
 Input file generated by CHIRIPA (05-May-2021 14:57:26)
 ------------------------------------------------------
 Symbolic Z-matrix:
 Charge =  0 Multiplicity = 1

                         Standard orientation:
 ---------------------------------------------------------------------
 Center     Atomic      Atomic             Coordinates (Angstroms)
 Number     Number       Type             X           Y           Z
 ---------------------------------------------------------------------
      1          6           0        3.411032   -1.963379   -0.892689
      2          6           0        2.415071   -1.851533    0.083053
      3          6           0        2.068029   -0.601159    0.603316
      4          6           0        2.740352    0.521568    0.122946
      5          6           0        3.736987    0.442683   -0.848540
      6          6           0        4.067654   -0.817933   -1.354558
      7          1           0        3.674262   -2.938678   -1.291309
      8          1           0        1.903454   -2.739390    0.443614
      9          1           0        1.300813   -0.485850    1.359294
     10          1           0        4.229338    1.345781   -1.188281
     11          1           0        4.841531   -0.901784   -2.112270
     12          7           0        2.381622    1.850705    0.666184
     13          8           0        2.988845    2.824600    0.226358
     14          8           0        1.500019    1.893421    1.521514
     15          6           0       -1.364310   -1.865458    1.331657
     16          6           0       -2.323983   -1.066357    1.961725
     17          6           0       -3.124750   -0.196729    1.215357
     18          6           0       -2.938221   -0.151410   -0.165384
     19          6           0       -1.990618   -0.934930   -0.822221
     20          6           0       -1.200978   -1.797314   -0.055859
     21          1           0       -0.746576   -2.538192    1.919220
     22          1           0       -2.453029   -1.117191    3.039133
     23          1           0       -3.875234    0.433065    1.677471
     24          1           0       -1.885170   -0.862256   -1.897868
     25          1           0       -0.456473   -2.416737   -0.547869
     26          7           0       -3.780069    0.765392   -0.966114
     27          8           0       -3.596155    0.786743   -2.181169
     28          8           0       -4.607880    1.445269   -0.363509
 ---------------------------------------------------------------------

 SCF Done:  E(RHF) =  -868.335162502     A.U. after   16 cycles
 E2 =    -0.2603167364D+01 EUMP2 =    -0.87093832986617D+03

 The electronic state is 1-A.
 Alpha  occ. eigenvalues --  -20.61103 -20.61093 -20.60789 -20.60777 -15.86164
 Alpha  occ. eigenvalues --  -15.85842 -11.31669 -11.31375 -11.28309 -11.28276
 Alpha  occ. eigenvalues --  -11.28134 -11.27943 -11.27885 -11.27830 -11.27461
 Alpha  occ. eigenvalues --  -11.27285 -11.27090 -11.27029  -1.60172  -1.59852
 Alpha  occ. eigenvalues --   -1.39722  -1.39403  -1.19914  -1.19564  -1.09277
 Alpha  occ. eigenvalues --   -1.08985  -1.05380  -1.04961  -0.96076  -0.95773
 Alpha  occ. eigenvalues --   -0.86753  -0.86410  -0.82921  -0.82589  -0.77959
 Alpha  occ. eigenvalues --   -0.77557  -0.72383  -0.72067  -0.71498  -0.71168
 Alpha  occ. eigenvalues --   -0.71047  -0.70730  -0.65611  -0.65503  -0.65233
 Alpha  occ. eigenvalues --   -0.64930  -0.62741  -0.62256  -0.55859  -0.55604
 Alpha  occ. eigenvalues --   -0.53820  -0.53616  -0.53072  -0.52981  -0.49152
 Alpha  occ. eigenvalues --   -0.49121  -0.48836  -0.48804  -0.45094  -0.44771
 Alpha  occ. eigenvalues --   -0.37915  -0.37802  -0.37083  -0.36173
 Alpha virt. eigenvalues --    0.04611   0.04899   0.10544   0.11092   0.15945
 Alpha virt. eigenvalues --    0.16291   0.19111   0.22135   0.25364   0.26977
 Alpha virt. eigenvalues --    0.27967   0.29196   0.30494   0.30967   0.31904

 Mulliken charges:
               1
     1  C   -0.171220
     2  C   -0.227229
     3  C   -0.165107
     4  C    0.156801
     5  C   -0.168520
     6  C   -0.219235
     7  H    0.226159
     8  H    0.212906
     9  H    0.278415
    10  H    0.278370
    11  H    0.225785
    12  N    0.488272
    13  O   -0.457956
    14  O   -0.459503
    15  C   -0.184057
    16  C   -0.213458
    17  C   -0.167321
    18  C    0.161996
    19  C   -0.170865
    20  C   -0.215013
    21  H    0.219129
    22  H    0.226258
    23  H    0.278635
    24  H    0.276373
    25  H    0.219745
    26  N    0.488208
    27  O   -0.459964
    28  O   -0.457604
 Sum of Mulliken charges =  -0.00000

 Dipole moment (field-independent basis, Debye):
    X=              4.1097    Y=             -7.5709    Z=              0.8610  Tot=              8.6573
 Quadrupole moment (field-independent basis, Debye-Ang):
   XX=           -111.8074   YY=           -109.1024   ZZ=           -101.5622
   XY=             -2.2327   XZ=            -18.9382   YZ=             -1.3150

 Normal termination of Gaussian 16 at Thu May  6 09:55:44 2021.
