 Gaussian 16, Revision A.03,
 Gaussian 16:  EM64L-G16RevA.03 25-Dec-2016

 -------------
 #p 6-31g* mp2
 -------------

 ------------------------------------------------------
 Input file generated by CHIRIPA (05-May-2021 14:53:14)
 ------------------------------------------------------
 Symbolic Z-matrix:
 Charge =  0 Multiplicity = 1

                         Standard orientation:
 ---------------------------------------------------------------------
 Center     Atomic      Atomic             Coordinates (Angstroms)
 Number     Number       Type             X           Y           Z
 ---------------------------------------------------------------------
      1          6           0        3.440656   -0.498850   -0.331848
      2          6           0        3.994154   -1.717759    0.406994
      3          6           0        3.346585   -3.027138   -0.044641
      4          1           0        2.354518   -0.445381   -0.175673
      5          1           0        3.595004   -0.631998   -1.411590
      6          1           0        3.840053   -1.581723    1.485123
      7          1           0        5.079129   -1.768224    0.249199
      8          1           0        3.511936   -3.189704   -1.114610
      9          1           0        2.265819   -3.002144    0.128336
     10          1           0        3.756985   -3.885498    0.496331
     11          6           0        4.078222    0.817648    0.108685
     12          6           0        3.524724    2.036557   -0.630157
     13          6           0        4.172293    3.345936   -0.178522
     14          1           0        3.923874    0.950796    1.188427
     15          1           0        5.164360    0.764179   -0.047490
     16          1           0        2.439749    2.087022   -0.472362
     17          1           0        3.678825    1.900522   -1.708286
     18          1           0        5.253058    3.320942   -0.351499
     19          1           0        4.006942    3.508502    0.891447
     20          1           0        3.761893    4.204296   -0.719494
     21          6           0       -0.838227   -1.503020    0.333318
     22          6           0       -0.931562   -0.253052    0.954115
     23          6           0       -2.089650    0.519345    0.824558
     24          6           0       -3.139969    0.008737    0.063376
     25          6           0       -3.077268   -1.232891   -0.567273
     26          6           0       -1.909491   -1.988095   -0.424059
     27          1           0        0.065166   -2.096359    0.439265
     28          1           0       -0.101178    0.126190    1.542914
     29          1           0       -2.188632    1.490335    1.294451
     30          1           0       -3.921608   -1.584317   -1.147796
     31          1           0       -1.839807   -2.958490   -0.907300
     32          7           0       -4.371114    0.817338   -0.081008
     33          8           0       -5.282455    0.345016   -0.757030
     34          8           0       -4.401432    1.908131    0.484578
 ---------------------------------------------------------------------

 SCF Done:  E(RHF) =  -669.535408483     A.U. after   15 cycles
 E2 =    -0.2091880777D+01 EUMP2 =    -0.67162728925964D+03

 The electronic state is 1-A.
 Alpha  occ. eigenvalues --  -20.60769 -20.60763 -15.85823 -11.31198 -11.27773
 Alpha  occ. eigenvalues --  -11.27765 -11.27498 -11.26794 -11.26768 -11.22593
 Alpha  occ. eigenvalues --  -11.22319 -11.22260 -11.22220 -11.22127 -11.21560
 Alpha  occ. eigenvalues --   -1.59844  -1.39397  -1.19372  -1.09281  -1.08763
 Alpha  occ. eigenvalues --   -1.04776  -1.04357  -0.96816  -0.95599  -0.87830
 Alpha  occ. eigenvalues --   -0.86173  -0.82433  -0.80422  -0.79061  -0.77475
 Alpha  occ. eigenvalues --   -0.72041  -0.71167  -0.70508  -0.65939  -0.65022
 Alpha  occ. eigenvalues --   -0.64766  -0.62123  -0.61769  -0.60187  -0.58411
 Alpha  occ. eigenvalues --   -0.56194  -0.55241  -0.53486  -0.53229  -0.53096
 Alpha  occ. eigenvalues --   -0.52867  -0.50772  -0.48807  -0.48795  -0.48717
 Alpha  occ. eigenvalues --   -0.47459  -0.46600  -0.46519  -0.44801  -0.44600
 Alpha  occ. eigenvalues --   -0.37336  -0.36377
 Alpha virt. eigenvalues --    0.05045   0.11176   0.16492   0.18638   0.22435
 Alpha virt. eigenvalues --    0.23568   0.25340   0.25634   0.26523   0.28189
 Alpha virt. eigenvalues --    0.29022   0.30623   0.30921   0.31378   0.31958

 Mulliken charges:
               1
     1  C   -0.301267
     2  C   -0.300904
     3  C   -0.478484
     4  H    0.143744
     5  H    0.153455
     6  H    0.151048
     7  H    0.157088
     8  H    0.160055
     9  H    0.144165
    10  H    0.165301
    11  C   -0.298839
    12  C   -0.300046
    13  C   -0.476206
    14  H    0.147662
    15  H    0.152713
    16  H    0.150657
    17  H    0.154360
    18  H    0.156515
    19  H    0.154790
    20  H    0.163278
    21  C   -0.176456
    22  C   -0.222681
    23  C   -0.170677
    24  C    0.158352
    25  C   -0.170508
    26  C   -0.221933
    27  H    0.237944
    28  H    0.223995
    29  H    0.275638
    30  H    0.275757
    31  H    0.224238
    32  N    0.487977
    33  O   -0.460319
    34  O   -0.460414
 Sum of Mulliken charges =  -0.00000

 Dipole moment (field-independent basis, Debye):
    X=              4.5260    Y=             -2.8162    Z=              0.4350  Tot=              5.3483
 Quadrupole moment (field-independent basis, Debye-Ang):
   XX=           -120.4069   YY=            -93.3374   ZZ=            -93.1677
   XY=             10.2215   XZ=             -0.8050   YZ=              2.0846

 Normal termination of Gaussian 16 at Thu May  6 07:25:43 2021.
