 Gaussian 16, Revision A.03,
 Gaussian 16:  EM64L-G16RevA.03 25-Dec-2016

 -------------
 #p 6-31g* mp2
 -------------

 ------------------------------------------------------
 Input file generated by CHIRIPA (05-May-2021 14:53:16)
 ------------------------------------------------------
 Symbolic Z-matrix:
 Charge =  0 Multiplicity = 1

                         Standard orientation:
 ---------------------------------------------------------------------
 Center     Atomic      Atomic             Coordinates (Angstroms)
 Number     Number       Type             X           Y           Z
 ---------------------------------------------------------------------
      1          6           0       -2.665971    0.792243   -0.335973
      2          6           0       -3.489166    1.733536    0.543972
      3          6           0       -2.993423    3.178873    0.488862
      4          1           0       -1.614111    0.832844   -0.021512
      5          1           0       -2.696033    1.151845   -1.373845
      6          1           0       -3.458698    1.371489    1.579640
      7          1           0       -4.539221    1.690546    0.227504
      8          1           0       -3.039990    3.563330   -0.535162
      9          1           0       -1.953328    3.242461    0.824657
     10          1           0       -3.596034    3.834525    1.125132
     11          6           0       -3.149384   -0.656224   -0.291454
     12          6           0       -2.326190   -1.597518   -1.171399
     13          6           0       -2.821932   -3.042854   -1.116289
     14          1           0       -3.119323   -1.015826    0.746417
     15          1           0       -4.201245   -0.696825   -0.605916
     16          1           0       -1.276135   -1.554527   -0.854931
     17          1           0       -2.356658   -1.235470   -2.207068
     18          1           0       -3.862028   -3.106442   -1.452085
     19          1           0       -2.775366   -3.427311   -0.092265
     20          1           0       -2.219322   -3.698506   -1.752560
     21          6           0        0.921556   -1.635165    1.673519
     22          6           0        0.473489   -0.327045    1.462389
     23          6           0        1.213390    0.558150    0.672752
     24          6           0        2.402143    0.099812    0.106993
     25          6           0        2.874949   -1.197484    0.298738
     26          6           0        2.118746   -2.065451    1.092045
     27          1           0        0.340451   -2.316114    2.288354
     28          1           0       -0.455891    0.009862    1.912714
     29          1           0        0.889793    1.576162    0.492881
     30          1           0        3.805335   -1.504450   -0.163400
     31          1           0        2.469161   -3.080799    1.254291
     32          7           0        3.194072    1.027810   -0.730902
     33          8           0        4.238044    0.599633   -1.218164
     34          8           0        2.755819    2.165779   -0.884517
 ---------------------------------------------------------------------

 SCF Done:  E(RHF) =  -669.534118310     A.U. after   15 cycles
 E2 =    -0.2094655092D+01 EUMP2 =    -0.67162877340274D+03

 The electronic state is 1-A.
 Alpha  occ. eigenvalues --  -20.60825 -20.60819 -15.85880 -11.31290 -11.27858
 Alpha  occ. eigenvalues --  -11.27849 -11.27610 -11.26885 -11.26873 -11.22202
 Alpha  occ. eigenvalues --  -11.21991 -11.21925 -11.21889 -11.21582 -11.21529
 Alpha  occ. eigenvalues --   -1.59899  -1.39451  -1.19477  -1.09008  -1.08838
 Alpha  occ. eigenvalues --   -1.04893  -1.04035  -0.96496  -0.95683  -0.87506
 Alpha  occ. eigenvalues --   -0.86275  -0.82533  -0.80088  -0.78812  -0.77548
 Alpha  occ. eigenvalues --   -0.72097  -0.71222  -0.70574  -0.65820  -0.65121
 Alpha  occ. eigenvalues --   -0.64785  -0.62229  -0.61426  -0.59850  -0.58091
 Alpha  occ. eigenvalues --   -0.55831  -0.55357  -0.53298  -0.53099  -0.52981
 Alpha  occ. eigenvalues --   -0.52878  -0.50453  -0.48860  -0.48850  -0.48400
 Alpha  occ. eigenvalues --   -0.47139  -0.46308  -0.46272  -0.44845  -0.44294
 Alpha  occ. eigenvalues --   -0.37433  -0.36389
 Alpha virt. eigenvalues --    0.04942   0.11104   0.16296   0.19003   0.22956
 Alpha virt. eigenvalues --    0.23320   0.25524   0.25722   0.27540   0.28614
 Alpha virt. eigenvalues --    0.29127   0.30439   0.31229   0.31587   0.32150

 Mulliken charges:
               1
     1  C   -0.305698
     2  C   -0.301104
     3  C   -0.474848
     4  H    0.147609
     5  H    0.155766
     6  H    0.145825
     7  H    0.155611
     8  H    0.160627
     9  H    0.149947
    10  H    0.162812
    11  C   -0.296890
    12  C   -0.305873
    13  C   -0.474996
    14  H    0.140547
    15  H    0.152687
    16  H    0.158435
    17  H    0.154966
    18  H    0.156681
    19  H    0.149537
    20  H    0.161716
    21  C   -0.172301
    22  C   -0.218399
    23  C   -0.170619
    24  C    0.157724
    25  C   -0.171009
    26  C   -0.218409
    27  H    0.226439
    28  H    0.227527
    29  H    0.277170
    30  H    0.276125
    31  H    0.224209
    32  N    0.488114
    33  O   -0.460121
    34  O   -0.459807
 Sum of Mulliken charges =  -0.00000

 Dipole moment (field-independent basis, Debye):
    X=             -2.7541    Y=             -3.2333    Z=              2.8499  Tot=              5.1148
 Quadrupole moment (field-independent basis, Debye-Ang):
   XX=           -105.7484   YY=            -94.1472   ZZ=            -94.0704
   XY=            -11.7374   XZ=              7.0685   YZ=              0.2169

 Normal termination of Gaussian 16 at Thu May  6 13:53:01 2021.
