 Gaussian 16, Revision A.03,
 Gaussian 16:  EM64L-G16RevA.03 25-Dec-2016

 -------------
 #p 6-31g* mp2
 -------------

 ------------------------------------------------------
 Input file generated by CHIRIPA (05-May-2021 14:57:27)
 ------------------------------------------------------
 Symbolic Z-matrix:
 Charge =  0 Multiplicity = 1

                         Standard orientation:
 ---------------------------------------------------------------------
 Center     Atomic      Atomic             Coordinates (Angstroms)
 Number     Number       Type             X           Y           Z
 ---------------------------------------------------------------------
      1          6           0        4.005050    0.926181    1.436369
      2          6           0        4.099343   -0.441097    1.156760
      3          6           0        3.255068   -1.032543    0.212335
      4          6           0        2.323823   -0.223330   -0.436700
      5          6           0        2.205546    1.141737   -0.180001
      6          6           0        3.060118    1.711849    0.768274
      7          1           0        4.664903    1.377344    2.171517
      8          1           0        4.832244   -1.053701    1.674076
      9          1           0        3.306597   -2.088561   -0.023437
     10          1           0        1.464999    1.726651   -0.711870
     11          1           0        2.984639    2.773955    0.983398
     12          7           0        1.424576   -0.838175   -1.438559
     13          8           0        0.612552   -0.103508   -1.996697
     14          8           0        1.548797   -2.043115   -1.646706
     15          6           0       -2.647411   -2.149022    1.356773
     16          6           0       -2.616760   -2.039885   -0.037383
     17          6           0       -2.519762   -0.786710   -0.649503
     18          6           0       -2.455075    0.341550    0.166669
     19          6           0       -2.483392    0.265478    1.558323
     20          6           0       -2.580747   -0.998022    2.148781
     21          1           0       -2.722899   -3.126529    1.823870
     22          1           0       -2.668371   -2.932055   -0.654969
     23          1           0       -2.494073   -0.673398   -1.726498
     24          1           0       -2.430256    1.172877    2.147578
     25          1           0       -2.604346   -1.079758    3.231743
     26          7           0       -2.352198    1.673694   -0.469888
     27          8           0       -2.296633    2.652462    0.271438
     28          8           0       -2.329077    1.713838   -1.698094
 ---------------------------------------------------------------------

 SCF Done:  E(RHF) =  -868.339274859     A.U. after   16 cycles
 E2 =    -0.2600911310D+01 EUMP2 =    -0.87094018616881D+03

 The electronic state is 1-A.
 Alpha  occ. eigenvalues --  -20.60877 -20.60831 -20.60194 -20.60079 -15.85866
 Alpha  occ. eigenvalues --  -15.85176 -11.31125 -11.30436 -11.27726 -11.27606
 Alpha  occ. eigenvalues --  -11.27426 -11.27139 -11.26882 -11.26830 -11.26722
 Alpha  occ. eigenvalues --  -11.26625 -11.26127 -11.25935  -1.59924  -1.59214
 Alpha  occ. eigenvalues --   -1.39478  -1.38761  -1.19294  -1.18641  -1.08718
 Alpha  occ. eigenvalues --   -1.08065  -1.04670  -1.04019  -0.95567  -0.94904
 Alpha  occ. eigenvalues --   -0.86078  -0.85422  -0.82392  -0.81732  -0.77452
 Alpha  occ. eigenvalues --   -0.76770  -0.72115  -0.71405  -0.71261  -0.70490
 Alpha  occ. eigenvalues --   -0.70401  -0.69755  -0.64944  -0.64671  -0.64292
 Alpha  occ. eigenvalues --   -0.64025  -0.62005  -0.61345  -0.55195  -0.54571
 Alpha  occ. eigenvalues --   -0.53023  -0.52754  -0.52385  -0.52105  -0.48880
 Alpha  occ. eigenvalues --   -0.48858  -0.48184  -0.48136  -0.44949  -0.44137
 Alpha  occ. eigenvalues --   -0.37291  -0.36650  -0.36272  -0.35589
 Alpha virt. eigenvalues --    0.05033   0.05752   0.11370   0.12059   0.16569
 Alpha virt. eigenvalues --    0.17226   0.21529   0.22131   0.27470   0.28067
 Alpha virt. eigenvalues --    0.28364   0.29065   0.31037   0.31603   0.32622

 Mulliken charges:
               1
     1  C   -0.171041
     2  C   -0.219160
     3  C   -0.171724
     4  C    0.158062
     5  C   -0.173541
     6  C   -0.219187
     7  H    0.225412
     8  H    0.222106
     9  H    0.273364
    10  H    0.284279
    11  H    0.227350
    12  N    0.488459
    13  O   -0.457608
    14  O   -0.465231
    15  C   -0.171538
    16  C   -0.220008
    17  C   -0.159114
    18  C    0.153168
    19  C   -0.173730
    20  C   -0.220589
    21  H    0.222962
    22  H    0.226698
    23  H    0.286134
    24  H    0.270660
    25  H    0.218813
    26  N    0.487314
    27  O   -0.471552
    28  O   -0.450759
 Sum of Mulliken charges =  -0.00000

 Dipole moment (field-independent basis, Debye):
    X=              2.8602    Y=             -2.5114    Z=              5.4157  Tot=              6.6195
 Quadrupole moment (field-independent basis, Debye-Ang):
   XX=            -89.1219   YY=           -105.0106   ZZ=           -103.8605
   XY=             14.3663   XZ=              2.6956   YZ=             -0.3694

 Normal termination of Gaussian 16 at Fri May  7 09:44:04 2021.
