 Gaussian 16, Revision A.03,
 Gaussian 16:  EM64L-G16RevA.03 25-Dec-2016

 -------------
 #p 6-31g* mp2
 -------------

 ------------------------------------------------------
 Input file generated by CHIRIPA (05-May-2021 14:51:11)
 ------------------------------------------------------
 Symbolic Z-matrix:
 Charge =  0 Multiplicity = 1

                         Standard orientation:
 ---------------------------------------------------------------------
 Center     Atomic      Atomic             Coordinates (Angstroms)
 Number     Number       Type             X           Y           Z
 ---------------------------------------------------------------------
      1          6           0        3.313218   -0.049916    0.304540
      2          6           0        4.005217    0.657886   -0.860853
      3          6           0        4.962199    1.757785   -0.400199
      4          1           0        2.762908    0.690972    0.900517
      5          1           0        4.076031   -0.480472    0.967965
      6          1           0        3.241295    1.085791   -1.522620
      7          1           0        4.553788   -0.084802   -1.454235
      8          1           0        5.745312    1.342766    0.242525
      9          1           0        4.425362    2.520010    0.173751
     10          1           0        5.445960    2.250583   -1.249308
     11          6           0        2.353359   -1.152098   -0.139973
     12          6           0        1.661360   -1.859900    1.025419
     13          6           0        0.704378   -2.959799    0.564766
     14          1           0        1.590546   -0.721543   -0.803399
     15          1           0        2.903669   -1.892986   -0.735951
     16          1           0        1.112789   -1.117213    1.618801
     17          1           0        2.425282   -2.287806    1.687186
     18          1           0        1.241215   -3.722024   -0.009185
     19          1           0       -0.078735   -2.544781   -0.077959
     20          1           0        0.220617   -3.452597    1.413874
     21          6           0       -2.629269    1.158769    0.398040
     22          6           0       -2.545545    2.532409   -0.268361
     23          6           0       -2.136254    3.637893    0.705384
     24          1           0       -3.348538    1.203787    1.227237
     25          1           0       -1.654539    0.914647    0.842676
     26          1           0       -3.519749    2.773260   -0.712806
     27          1           0       -1.826533    2.484066   -1.096190
     28          1           0       -1.154405    3.424305    1.140072
     29          1           0       -2.857242    3.715143    1.525634
     30          1           0       -2.082598    4.611360    0.208048
     31          6           0       -3.037308    0.043245   -0.562606
     32          6           0       -3.121032   -1.330394    0.103795
     33          6           0       -3.530323   -2.435878   -0.869950
     34          1           0       -4.012038    0.287366   -1.007243
     35          1           0       -2.318038   -0.001772   -1.391804
     36          1           0       -3.840044   -1.282051    0.931623
     37          1           0       -2.146827   -1.571247    0.548239
     38          1           0       -2.809335   -2.513129   -1.690200
     39          1           0       -4.512173   -2.222290   -1.304638
     40          1           0       -3.583979   -3.409344   -0.372614
 ---------------------------------------------------------------------

 SCF Done:  E(RHF) =  -470.733205734     A.U. after   11 cycles
 E2 =    -0.1583110733D+01 EUMP2 =    -0.47231631646709D+03

 The electronic state is 1-A.
 Alpha  occ. eigenvalues --  -11.21668 -11.21642 -11.21639 -11.21554 -11.21463
 Alpha  occ. eigenvalues --  -11.21436 -11.21402 -11.21374 -11.21109 -11.21104
 Alpha  occ. eigenvalues --  -11.21100 -11.21059  -1.08492  -1.08447  -1.03599
 Alpha  occ. eigenvalues --   -1.03526  -0.96043  -0.95982  -0.87050  -0.87006
 Alpha  occ. eigenvalues --   -0.79675  -0.79574  -0.78300  -0.78263  -0.65249
 Alpha  occ. eigenvalues --   -0.64980  -0.61187  -0.60764  -0.59405  -0.59349
 Alpha  occ. eigenvalues --   -0.57638  -0.57603  -0.55438  -0.55170  -0.52722
 Alpha  occ. eigenvalues --   -0.52679  -0.52453  -0.52413  -0.50061  -0.49872
 Alpha  occ. eigenvalues --   -0.47999  -0.47880  -0.46803  -0.46494  -0.45898
 Alpha  occ. eigenvalues --   -0.45795  -0.45752  -0.45637  -0.43835  -0.43798
 Alpha virt. eigenvalues --    0.19874   0.23141   0.23804   0.24456   0.26033
 Alpha virt. eigenvalues --    0.26694   0.27215   0.27928   0.28339   0.28933
 Alpha virt. eigenvalues --    0.30818   0.31550   0.31684   0.31895   0.31933

 Mulliken charges:
               1
     1  C   -0.298262
     2  C   -0.299679
     3  C   -0.475747
     4  H    0.149365
     5  H    0.149827
     6  H    0.151793
     7  H    0.152087
     8  H    0.155291
     9  H    0.155267
    10  H    0.160415
    11  C   -0.298281
    12  C   -0.301002
    13  C   -0.480152
    14  H    0.148859
    15  H    0.150038
    16  H    0.151988
    17  H    0.152585
    18  H    0.155659
    19  H    0.159948
    20  H    0.160538
    21  C   -0.298500
    22  C   -0.299625
    23  C   -0.475626
    24  H    0.150009
    25  H    0.148871
    26  H    0.152236
    27  H    0.151635
    28  H    0.154736
    29  H    0.155391
    30  H    0.160423
    31  C   -0.298329
    32  C   -0.306616
    33  C   -0.475779
    34  H    0.149844
    35  H    0.148741
    36  H    0.152015
    37  H    0.159033
    38  H    0.154948
    39  H    0.155148
    40  H    0.160908
 Sum of Mulliken charges =  -0.00000

 Dipole moment (field-independent basis, Debye):
    X=              0.0100    Y=             -0.0195    Z=              0.0077  Tot=              0.0232
 Quadrupole moment (field-independent basis, Debye-Ang):
   XX=            -83.7507   YY=            -85.7275   ZZ=            -85.1283
   XY=             -1.5652   XZ=             -0.5075   YZ=             -0.6745

 Normal termination of Gaussian 16 at Wed May  5 21:30:08 2021.
