 Gaussian 16, Revision A.03,
 Gaussian 16:  EM64L-G16RevA.03 25-Dec-2016

 -------------
 #p 6-31g* mp2
 -------------

 ------------------------------------------------------
 Input file generated by CHIRIPA (05-May-2021 14:57:21)
 ------------------------------------------------------
 Symbolic Z-matrix:
 Charge =  0 Multiplicity = 1

                         Standard orientation:
 ---------------------------------------------------------------------
 Center     Atomic      Atomic             Coordinates (Angstroms)
 Number     Number       Type             X           Y           Z
 ---------------------------------------------------------------------
      1          6           0        2.674695    2.062829    0.258140
      2          6           0        3.998007    2.357854   -0.085849
      3          6           0        4.938455    1.333951   -0.233250
      4          6           0        4.519281    0.020341   -0.028279
      5          6           0        3.208147   -0.305611    0.315191
      6          6           0        2.284677    0.734380    0.457211
      7          1           0        1.950727    2.864470    0.370554
      8          1           0        4.303729    3.388625   -0.241064
      9          1           0        5.969371    1.534104   -0.498897
     10          1           0        2.933197   -1.342837    0.463454
     11          1           0        1.257652    0.502299    0.724426
     12          7           0        5.505904   -1.072135   -0.181478
     13          8           0        5.111445   -2.221234    0.004558
     14          8           0        6.654998   -0.758633   -0.484690
     15          6           0       -6.706083    0.655226   -0.334777
     16          6           0       -5.651000    1.556893   -0.160658
     17          6           0       -4.345232    1.094094    0.027313
     18          6           0       -4.129542   -0.283112    0.035688
     19          6           0       -5.159754   -1.206580   -0.135077
     20          6           0       -6.457530   -0.721207   -0.321454
     21          1           0       -7.717331    1.023507   -0.480179
     22          1           0       -5.841075    2.626388   -0.170552
     23          1           0       -3.509900    1.769975    0.164504
     24          1           0       -4.939143   -2.267020   -0.120440
     25          1           0       -7.274980   -1.423776   -0.456426
     26          7           0       -2.751413   -0.785007    0.233841
     27          8           0       -2.587677   -2.003127    0.237191
     28          8           0       -1.861067    0.049233    0.382053
 ---------------------------------------------------------------------

 SCF Done:  E(RHF) =  -868.340076164     A.U. after   16 cycles
 E2 =    -0.2598269053D+01 EUMP2 =    -0.87093834521690D+03

 The electronic state is 1-A.
 Alpha  occ. eigenvalues --  -20.61686 -20.61651 -20.59986 -20.59971 -15.86699
 Alpha  occ. eigenvalues --  -15.85024 -11.31831 -11.30246 -11.28396 -11.28345
 Alpha  occ. eigenvalues --  -11.28061 -11.27341 -11.27309 -11.26836 -11.26669
 Alpha  occ. eigenvalues --  -11.26483 -11.25869 -11.25531  -1.60724  -1.59059
 Alpha  occ. eigenvalues --   -1.40286  -1.38616  -1.19977  -1.18384  -1.09414
 Alpha  occ. eigenvalues --   -1.07812  -1.05347  -1.03736  -0.96290  -0.94678
 Alpha  occ. eigenvalues --   -0.86755  -0.85143  -0.83135  -0.81493  -0.78208
 Alpha  occ. eigenvalues --   -0.76555  -0.72937  -0.72021  -0.71248  -0.71083
 Alpha  occ. eigenvalues --   -0.70380  -0.69512  -0.65636  -0.65347  -0.64025
 Alpha  occ. eigenvalues --   -0.63692  -0.62700  -0.61057  -0.55851  -0.54274
 Alpha  occ. eigenvalues --   -0.53685  -0.53437  -0.52114  -0.51791  -0.49697
 Alpha  occ. eigenvalues --   -0.49648  -0.48011  -0.47988  -0.45739  -0.44053
 Alpha  occ. eigenvalues --   -0.37939  -0.36939  -0.36385  -0.35338
 Alpha virt. eigenvalues --    0.04322   0.05928   0.10720   0.12306   0.15866
 Alpha virt. eigenvalues --    0.17467   0.20867   0.22508   0.26799   0.27672
 Alpha virt. eigenvalues --    0.28582   0.29240   0.30466   0.31837   0.32154

 Mulliken charges:
               1
     1  C   -0.173018
     2  C   -0.218706
     3  C   -0.173415
     4  C    0.158184
     5  C   -0.173472
     6  C   -0.227013
     7  H    0.222672
     8  H    0.218837
     9  H    0.272027
    10  H    0.278327
    11  H    0.249064
    12  N    0.487995
    13  O   -0.460429
    14  O   -0.463912
    15  C   -0.169875
    16  C   -0.218341
    17  C   -0.170316
    18  C    0.158003
    19  C   -0.169992
    20  C   -0.218454
    21  H    0.227740
    22  H    0.224450
    23  H    0.272577
    24  H    0.277318
    25  H    0.225811
    26  N    0.492134
    27  O   -0.455333
    28  O   -0.472863
 Sum of Mulliken charges =  -0.00000

 Dipole moment (field-independent basis, Debye):
    X=             -8.9306    Y=              5.4661    Z=             -0.1347  Tot=             10.4715
 Quadrupole moment (field-independent basis, Debye-Ang):
   XX=            -94.1505   YY=            -99.4953   ZZ=           -106.3856
   XY=             15.7013   XZ=              4.7735   YZ=             -0.3473

 Normal termination of Gaussian 16 at Thu May  6 09:36:43 2021.
