 Gaussian 16, Revision A.03,
 Gaussian 16:  EM64L-G16RevA.03 25-Dec-2016

 -------------
 #p 6-31g* mp2
 -------------

 ------------------------------------------------------
 Input file generated by CHIRIPA (05-May-2021 14:57:25)
 ------------------------------------------------------
 Symbolic Z-matrix:
 Charge =  0 Multiplicity = 1

                         Standard orientation:
 ---------------------------------------------------------------------
 Center     Atomic      Atomic             Coordinates (Angstroms)
 Number     Number       Type             X           Y           Z
 ---------------------------------------------------------------------
      1          6           0        5.066731    0.865752    0.099088
      2          6           0        3.986776    1.476556   -0.546774
      3          6           0        2.758015    0.818137   -0.652509
      4          6           0        2.643858   -0.455964   -0.098501
      5          6           0        3.701296   -1.090941    0.551052
      6          6           0        4.920801   -0.413791    0.644977
      7          1           0        6.017667    1.384503    0.176638
      8          1           0        4.097218    2.470197   -0.971655
      9          1           0        1.905584    1.267690   -1.147162
     10          1           0        3.560761   -2.082173    0.964727
     11          1           0        5.757793   -0.890592    1.147123
     12          7           0        1.347923   -1.162917   -0.204187
     13          8           0        1.273051   -2.284794    0.292225
     14          8           0        0.431580   -0.581765   -0.781434
     15          6           0       -2.121776    2.730992    0.405491
     16          6           0       -2.239453    2.203705   -0.884719
     17          6           0       -2.646219    0.879937   -1.076362
     18          6           0       -2.928565    0.108244    0.049721
     19          6           0       -2.820784    0.604797    1.347837
     20          6           0       -2.412304    1.931265    1.515694
     21          1           0       -1.805125    3.760375    0.545126
     22          1           0       -2.014483    2.822463   -1.748762
     23          1           0       -2.745671    0.446321   -2.064038
     24          1           0       -3.051979   -0.036468    2.189709
     25          1           0       -2.321790    2.338100    2.518858
     26          7           0       -3.360097   -1.294600   -0.140572
     27          8           0       -3.602990   -1.953814    0.867929
     28          8           0       -3.447267   -1.708370   -1.294623
 ---------------------------------------------------------------------

 SCF Done:  E(RHF) =  -868.336983463     A.U. after   16 cycles
 E2 =    -0.2601127097D+01 EUMP2 =    -0.87093811056007D+03

 The electronic state is 1-A.
 Alpha  occ. eigenvalues --  -20.60876 -20.60859 -20.59458 -20.59439 -15.85912
 Alpha  occ. eigenvalues --  -15.84514 -11.31362 -11.29984 -11.27969 -11.27914
 Alpha  occ. eigenvalues --  -11.27695 -11.26995 -11.26947 -11.26672 -11.26622
 Alpha  occ. eigenvalues --  -11.26561 -11.25784 -11.25764  -1.59935  -1.58500
 Alpha  occ. eigenvalues --   -1.39489  -1.38063  -1.19542  -1.18224  -1.08921
 Alpha  occ. eigenvalues --   -1.07627  -1.04959  -1.03697  -0.95744  -0.94438
 Alpha  occ. eigenvalues --   -0.86351  -0.85106  -0.82578  -0.81298  -0.77614
 Alpha  occ. eigenvalues --   -0.76283  -0.72157  -0.71260  -0.70767  -0.70649
 Alpha  occ. eigenvalues --   -0.69762  -0.69445  -0.65196  -0.64964  -0.63934
 Alpha  occ. eigenvalues --   -0.63775  -0.62307  -0.61071  -0.55454  -0.54293
 Alpha  occ. eigenvalues --   -0.53284  -0.53054  -0.51966  -0.51848  -0.48912
 Alpha  occ. eigenvalues --   -0.48865  -0.47525  -0.47490  -0.44863  -0.43452
 Alpha  occ. eigenvalues --   -0.37527  -0.36570  -0.36207  -0.35260
 Alpha virt. eigenvalues --    0.04925   0.06319   0.11087   0.12360   0.16397
 Alpha virt. eigenvalues --    0.17726   0.21200   0.22219   0.27083   0.27955
 Alpha virt. eigenvalues --    0.28249   0.29154   0.30738   0.31688   0.32310

 Mulliken charges:
               1
     1  C   -0.170992
     2  C   -0.218692
     3  C   -0.170865
     4  C    0.158524
     5  C   -0.170683
     6  C   -0.218554
     7  H    0.225652
     8  H    0.221696
     9  H    0.272528
    10  H    0.277431
    11  H    0.224302
    12  N    0.490835
    13  O   -0.454740
    14  O   -0.465669
    15  C   -0.173278
    16  C   -0.221007
    17  C   -0.154216
    18  C    0.172179
    19  C   -0.170804
    20  C   -0.220090
    21  H    0.217849
    22  H    0.215883
    23  H    0.274587
    24  H    0.273251
    25  H    0.217594
    26  N    0.491116
    27  O   -0.463940
    28  O   -0.459898
 Sum of Mulliken charges =  -0.00000

 Dipole moment (field-independent basis, Debye):
    X=              6.2152    Y=              7.0604    Z=              0.9543  Tot=              9.4545
 Quadrupole moment (field-independent basis, Debye-Ang):
   XX=            -90.4343   YY=           -104.5626   ZZ=            -99.5765
   XY=            -11.0588   XZ=             -0.2091   YZ=             -3.0903

 Normal termination of Gaussian 16 at Fri May  7 08:06:10 2021.
