 Gaussian 16, Revision A.03,
 Gaussian 16:  EM64L-G16RevA.03 25-Dec-2016

 -------------
 #p 6-31g* mp2
 -------------

 ------------------------------------------------------
 Input file generated by CHIRIPA (05-May-2021 14:57:23)
 ------------------------------------------------------
 Symbolic Z-matrix:
 Charge =  0 Multiplicity = 1

                         Standard orientation:
 ---------------------------------------------------------------------
 Center     Atomic      Atomic             Coordinates (Angstroms)
 Number     Number       Type             X           Y           Z
 ---------------------------------------------------------------------
      1          6           0        1.284247    0.256015    0.234219
      2          6           0        2.064346    0.279542    1.395000
      3          6           0        3.453715    0.143465    1.319610
      4          6           0        4.032501   -0.015124    0.061378
      5          6           0        3.282352   -0.042602   -1.113275
      6          6           0        1.894664    0.095301   -1.014014
      7          1           0        0.205605    0.362432    0.302056
      8          1           0        1.593007    0.404213    2.365743
      9          1           0        4.081538    0.158117    2.202243
     10          1           0        3.780846   -0.168375   -2.066744
     11          1           0        1.291334    0.076655   -1.917169
     12          7           0        5.502474   -0.160149   -0.031070
     13          8           0        5.988206   -0.298604   -1.151575
     14          8           0        6.141074   -0.132619    1.018725
     15          6           0       -3.498360    2.493886   -0.208542
     16          6           0       -2.495792    1.645850   -0.690427
     17          6           0       -2.646777    0.257638   -0.622466
     18          6           0       -3.818449   -0.250727   -0.063860
     19          6           0       -4.835340    0.568084    0.424783
     20          6           0       -4.662881    1.953250    0.346546
     21          1           0       -3.372731    3.571099   -0.265327
     22          1           0       -1.590353    2.062915   -1.122029
     23          1           0       -1.886512   -0.421921   -0.987998
     24          1           0       -5.726787    0.122817    0.849610
     25          1           0       -5.443154    2.609431    0.721573
     26          7           0       -3.989657   -1.718752    0.013526
     27          8           0       -5.031306   -2.141704    0.510230
     28          8           0       -3.078957   -2.418642   -0.423988
 ---------------------------------------------------------------------

 SCF Done:  E(RHF) =  -868.336774393     A.U. after   16 cycles
 E2 =    -0.2600795402D+01 EUMP2 =    -0.87093756979566D+03

 The electronic state is 1-A.
 Alpha  occ. eigenvalues --  -20.61611 -20.61600 -20.60938 -20.60933 -15.86670
 Alpha  occ. eigenvalues --  -15.85995 -11.32219 -11.31436 -11.28888 -11.28734
 Alpha  occ. eigenvalues --  -11.28500 -11.28035 -11.27995 -11.27904 -11.27796
 Alpha  occ. eigenvalues --  -11.27755 -11.27128 -11.27026  -1.60682  -1.60012
 Alpha  occ. eigenvalues --   -1.40231  -1.39563  -1.20401  -1.19624  -1.09735
 Alpha  occ. eigenvalues --   -1.09021  -1.05848  -1.05040  -0.96552  -0.95839
 Alpha  occ. eigenvalues --   -0.87204  -0.86448  -0.83402  -0.82663  -0.78431
 Alpha  occ. eigenvalues --   -0.77689  -0.72881  -0.72213  -0.72013  -0.71518
 Alpha  occ. eigenvalues --   -0.71335  -0.70739  -0.66043  -0.65819  -0.65289
 Alpha  occ. eigenvalues --   -0.65074  -0.63176  -0.62384  -0.56280  -0.55618
 Alpha  occ. eigenvalues --   -0.54074  -0.53921  -0.53351  -0.53143  -0.49652
 Alpha  occ. eigenvalues --   -0.49628  -0.48979  -0.48961  -0.45597  -0.44951
 Alpha  occ. eigenvalues --   -0.38341  -0.37625  -0.37443  -0.36635
 Alpha virt. eigenvalues --    0.04063   0.04836   0.10195   0.10982   0.15394
 Alpha virt. eigenvalues --    0.16294   0.18704   0.21941   0.24999   0.27134
 Alpha virt. eigenvalues --    0.27528   0.29868   0.30041   0.30923   0.31412

 Mulliken charges:
               1
     1  C   -0.175879
     2  C   -0.219582
     3  C   -0.169971
     4  C    0.158716
     5  C   -0.169566
     6  C   -0.221022
     7  H    0.226300
     8  H    0.225693
     9  H    0.276827
    10  H    0.276729
    11  H    0.218596
    12  N    0.487999
    13  O   -0.459700
    14  O   -0.459413
    15  C   -0.170605
    16  C   -0.221264
    17  C   -0.178906
    18  C    0.159252
    19  C   -0.169863
    20  C   -0.217658
    21  H    0.229657
    22  H    0.223039
    23  H    0.272317
    24  H    0.279150
    25  H    0.227672
    26  N    0.487881
    27  O   -0.456655
    28  O   -0.459743
 Sum of Mulliken charges =  -0.00000

 Dipole moment (field-independent basis, Debye):
    X=             -4.8061    Y=              5.7099    Z=              0.1633  Tot=              7.4651
 Quadrupole moment (field-independent basis, Debye-Ang):
   XX=           -145.8397   YY=           -108.4160   ZZ=            -99.4912
   XY=            -18.9265   XZ=              0.0990   YZ=              0.5411

 Normal termination of Gaussian 16 at Fri May  7 01:51:23 2021.
