 Gaussian 16, Revision A.03,
 Gaussian 16:  EM64L-G16RevA.03 25-Dec-2016

 -------------
 #p 6-31g* mp2
 -------------

 ------------------------------------------------------
 Input file generated by CHIRIPA (05-May-2021 14:55:24)
 ------------------------------------------------------
 Symbolic Z-matrix:
 Charge =  0 Multiplicity = 1

                         Standard orientation:
 ---------------------------------------------------------------------
 Center     Atomic      Atomic             Coordinates (Angstroms)
 Number     Number       Type             X           Y           Z
 ---------------------------------------------------------------------
      1          6           0        2.441536    2.240895    0.211487
      2          6           0        3.721051    1.859216    0.628239
      3          6           0        4.139096    0.530316    0.510718
      4          6           0        3.247860   -0.394931   -0.030491
      5          6           0        1.966720   -0.045607   -0.454689
      6          6           0        1.569990    1.288944   -0.327696
      7          1           0        2.125067    3.275411    0.306460
      8          1           0        4.400022    2.596367    1.047346
      9          1           0        5.124072    0.207520    0.825430
     10          1           0        1.312200   -0.803052   -0.868571
     11          1           0        0.575717    1.582498   -0.652181
     12          7           0        3.679143   -1.804769   -0.159919
     13          8           0        2.875125   -2.600818   -0.640021
     14          8           0        4.813034   -2.087055    0.221188
     15          6           0       -4.387657   -0.319741    0.460656
     16          6           0       -5.246779   -1.325971   -0.305762
     17          6           0       -5.882957   -2.375591    0.606032
     18          1           0       -3.601029   -0.859093    1.005870
     19          1           0       -5.007593    0.178916    1.218558
     20          1           0       -4.625740   -1.821591   -1.062920
     21          1           0       -6.031336   -0.784144   -0.849369
     22          1           0       -6.525374   -1.898385    1.353144
     23          1           0       -5.111791   -2.941727    1.138381
     24          1           0       -6.492714   -3.084701    0.037509
     25          6           0       -3.744898    0.735926   -0.437207
     26          6           0       -2.885776    1.742156    0.329211
     27          6           0       -2.249598    2.791776   -0.582584
     28          1           0       -3.124963    0.237269   -1.195109
     29          1           0       -4.531527    1.275278   -0.982422
     30          1           0       -2.101219    1.200329    0.872817
     31          1           0       -3.506815    2.237776    1.086369
     32          1           0       -3.020764    3.357912   -1.114933
     33          1           0       -1.607181    2.314570   -1.329696
     34          1           0       -1.639841    3.500886   -0.014061
 ---------------------------------------------------------------------

 SCF Done:  E(RHF) =  -669.535531557     A.U. after   15 cycles
 E2 =    -0.2091172661D+01 EUMP2 =    -0.67162670421728D+03

 The electronic state is 1-A.
 Alpha  occ. eigenvalues --  -20.60746 -20.60741 -15.85798 -11.31153 -11.27721
 Alpha  occ. eigenvalues --  -11.27712 -11.27450 -11.26735 -11.26671 -11.22461
 Alpha  occ. eigenvalues --  -11.22244 -11.22034 -11.21913 -11.21809 -11.21272
 Alpha  occ. eigenvalues --   -1.59821  -1.39375  -1.19320  -1.09023  -1.08715
 Alpha  occ. eigenvalues --   -1.04723  -1.04153  -0.96620  -0.95554  -0.87640
 Alpha  occ. eigenvalues --   -0.86116  -0.82388  -0.80225  -0.78773  -0.77440
 Alpha  occ. eigenvalues --   -0.72017  -0.71144  -0.70430  -0.65704  -0.64970
 Alpha  occ. eigenvalues --   -0.64725  -0.62170  -0.61452  -0.60020  -0.58193
 Alpha  occ. eigenvalues --   -0.55948  -0.55200  -0.53336  -0.53063  -0.53036
 Alpha  occ. eigenvalues --   -0.52768  -0.50542  -0.48774  -0.48772  -0.48524
 Alpha  occ. eigenvalues --   -0.47255  -0.46324  -0.46219  -0.44783  -0.44384
 Alpha  occ. eigenvalues --   -0.37300  -0.36324
 Alpha virt. eigenvalues --    0.05092   0.11300   0.16567   0.19467   0.22774
 Alpha virt. eigenvalues --    0.23838   0.25763   0.26662   0.26908   0.27841
 Alpha virt. eigenvalues --    0.29264   0.29822   0.31051   0.31535   0.32424

 Mulliken charges:
               1
     1  C   -0.173698
     2  C   -0.218420
     3  C   -0.171316
     4  C    0.158979
     5  C   -0.173848
     6  C   -0.226766
     7  H    0.225979
     8  H    0.223222
     9  H    0.275420
    10  H    0.275157
    11  H    0.237544
    12  N    0.488094
    13  O   -0.460729
    14  O   -0.460557
    15  C   -0.299101
    16  C   -0.300268
    17  C   -0.476257
    18  H    0.151311
    19  H    0.150575
    20  H    0.153226
    21  H    0.152205
    22  H    0.155247
    23  H    0.157000
    24  H    0.161857
    25  C   -0.298302
    26  C   -0.302576
    27  C   -0.481295
    28  H    0.147940
    29  H    0.151770
    30  H    0.151964
    31  H    0.156382
    32  H    0.163320
    33  H    0.148695
    34  H    0.157247
 Sum of Mulliken charges =  -0.00000

 Dipole moment (field-independent basis, Debye):
    X=             -1.7371    Y=              4.9637    Z=              0.4913  Tot=              5.2817
 Quadrupole moment (field-independent basis, Debye-Ang):
   XX=            -99.6133   YY=            -99.2079   ZZ=            -95.0561
   XY=             17.1460   XZ=              3.7322   YZ=              0.7487

 Normal termination of Gaussian 16 at Thu May  6 20:56:00 2021.
