 Gaussian 16, Revision A.03,
 Gaussian 16:  EM64L-G16RevA.03 25-Dec-2016

 -------------
 #p 6-31g* mp2
 -------------

 ------------------------------------------------------
 Input file generated by CHIRIPA (05-May-2021 14:53:18)
 ------------------------------------------------------
 Symbolic Z-matrix:
 Charge =  0 Multiplicity = 1

                         Standard orientation:
 ---------------------------------------------------------------------
 Center     Atomic      Atomic             Coordinates (Angstroms)
 Number     Number       Type             X           Y           Z
 ---------------------------------------------------------------------
      1          6           0       -5.121187    0.268773   -0.188170
      2          6           0       -5.777726   -1.108110   -0.293678
      3          6           0       -7.296799   -1.052881   -0.128873
      4          1           0       -5.369908    0.712920    0.785388
      5          1           0       -5.550032    0.931321   -0.952708
      6          1           0       -5.346780   -1.768266    0.469930
      7          1           0       -5.527254   -1.549112   -1.267022
      8          1           0       -7.744934   -0.416437   -0.898753
      9          1           0       -7.563434   -0.636836    0.848068
     10          1           0       -7.745623   -2.047964   -0.207790
     11          6           0       -3.602714    0.229948   -0.350843
     12          6           0       -2.946175    1.606832   -0.245336
     13          6           0       -1.427102    1.551603   -0.410140
     14          1           0       -3.173869   -0.432599    0.413694
     15          1           0       -3.353993   -0.214198   -1.324402
     16          1           0       -3.196646    2.047833    0.728008
     17          1           0       -3.377121    2.266988   -1.008943
     18          1           0       -1.160467    1.135558   -1.387081
     19          1           0       -0.978967    0.915159    0.359739
     20          1           0       -0.978277    2.546685   -0.331223
     21          6           0        1.315509   -0.057682    1.613958
     22          6           0        1.999713    1.110261    1.261399
     23          6           0        3.160033    1.046228    0.484158
     24          6           0        3.610046   -0.208071    0.074876
     25          6           0        2.950522   -1.389648    0.409827
     26          6           0        1.792256   -1.301715    1.187797
     27          1           0        0.414942    0.001344    2.218020
     28          1           0        1.631775    2.077766    1.590944
     29          1           0        3.709278    1.934592    0.196826
     30          1           0        3.341647   -2.339645    0.066396
     31          1           0        1.262945   -2.210413    1.460090
     32          7           0        4.837337   -0.288510   -0.748341
     33          8           0        5.213244   -1.405757   -1.096319
     34          8           0        5.400143    0.767211   -1.030011
 ---------------------------------------------------------------------

 SCF Done:  E(RHF) =  -669.534439476     A.U. after   15 cycles
 E2 =    -0.2092202867D+01 EUMP2 =    -0.67162664234298D+03

 The electronic state is 1-A.
 Alpha  occ. eigenvalues --  -20.60749 -20.60743 -15.85802 -11.31169 -11.27744
 Alpha  occ. eigenvalues --  -11.27729 -11.27490 -11.26765 -11.26745 -11.22204
 Alpha  occ. eigenvalues --  -11.22051 -11.21988 -11.21867 -11.21692 -11.21450
 Alpha  occ. eigenvalues --   -1.59824  -1.39377  -1.19350  -1.08978  -1.08753
 Alpha  occ. eigenvalues --   -1.04750  -1.04062  -0.96521  -0.95584  -0.87536
 Alpha  occ. eigenvalues --   -0.86148  -0.82416  -0.80127  -0.78783  -0.77450
 Alpha  occ. eigenvalues --   -0.72022  -0.71147  -0.70502  -0.65615  -0.65006
 Alpha  occ. eigenvalues --   -0.64755  -0.62099  -0.61470  -0.59888  -0.58132
 Alpha  occ. eigenvalues --   -0.55901  -0.55231  -0.53383  -0.53133  -0.52832
 Alpha  occ. eigenvalues --   -0.52719  -0.50435  -0.48781  -0.48775  -0.48431
 Alpha  occ. eigenvalues --   -0.47165  -0.46322  -0.46252  -0.44783  -0.44323
 Alpha  occ. eigenvalues --   -0.37250  -0.36338
 Alpha virt. eigenvalues --    0.05043   0.11275   0.16427   0.20533   0.22572
 Alpha virt. eigenvalues --    0.23995   0.25918   0.26669   0.26829   0.27697
 Alpha virt. eigenvalues --    0.28928   0.29966   0.31208   0.31589   0.32432

 Mulliken charges:
               1
     1  C   -0.298478
     2  C   -0.299789
     3  C   -0.475946
     4  H    0.149204
     5  H    0.151425
     6  H    0.150437
     7  H    0.153124
     8  H    0.156303
     9  H    0.155178
    10  H    0.161305
    11  C   -0.297204
    12  C   -0.300713
    13  C   -0.476598
    14  H    0.143932
    15  H    0.152171
    16  H    0.149348
    17  H    0.154731
    18  H    0.160533
    19  H    0.150550
    20  H    0.157125
    21  C   -0.170765
    22  C   -0.213106
    23  C   -0.171728
    24  C    0.158685
    25  C   -0.170951
    26  C   -0.219478
    27  H    0.224957
    28  H    0.224164
    29  H    0.275558
    30  H    0.275567
    31  H    0.223377
    32  N    0.488068
    33  O   -0.460540
    34  O   -0.460447
 Sum of Mulliken charges =  -0.00000

 Dipole moment (field-independent basis, Debye):
    X=             -4.3816    Y=              0.2809    Z=              2.8399  Tot=              5.2290
 Quadrupole moment (field-independent basis, Debye-Ang):
   XX=           -127.6447   YY=            -89.9602   ZZ=            -94.0537
   XY=              2.3557   XZ=             10.6380   YZ=             -0.5627

 Normal termination of Gaussian 16 at Thu May  6 18:59:39 2021.
