 Gaussian 16, Revision A.03,
 Gaussian 16:  EM64L-G16RevA.03 25-Dec-2016

 -------------
 #p 6-31g* mp2
 -------------

 ------------------------------------------------------
 Input file generated by CHIRIPA (05-May-2021 14:55:19)
 ------------------------------------------------------
 Symbolic Z-matrix:
 Charge =  0 Multiplicity = 1

                         Standard orientation:
 ---------------------------------------------------------------------
 Center     Atomic      Atomic             Coordinates (Angstroms)
 Number     Number       Type             X           Y           Z
 ---------------------------------------------------------------------
      1          6           0        1.514362    0.093554    1.475077
      2          6           0        2.288330   -1.065208    1.596590
      3          6           0        3.461555   -1.216773    0.851527
      4          6           0        3.832798   -0.185089   -0.009343
      5          6           0        3.082947    0.981335   -0.152412
      6          6           0        1.913436    1.111332    0.602502
      7          1           0        0.604415    0.202916    2.057686
      8          1           0        1.980842   -1.857260    2.273457
      9          1           0        4.079506   -2.103329    0.926184
     10          1           0        3.415161    1.753695   -0.835429
     11          1           0        1.314330    2.012345    0.506098
     12          7           0        5.072872   -0.334128   -0.803322
     13          8           0        5.378244    0.589306   -1.554756
     14          8           0        5.715989   -1.371557   -0.659174
     15          6           0       -4.967190   -0.478855   -0.260032
     16          6           0       -6.492061   -0.421489   -0.357317
     17          6           0       -7.123295   -1.798319   -0.566302
     18          1           0       -4.564552   -0.933239   -1.175652
     19          1           0       -4.684327   -1.142552    0.568757
     20          1           0       -6.771977    0.242992   -1.184800
     21          1           0       -6.891103    0.032988    0.558561
     22          1           0       -6.872939   -2.466895    0.263714
     23          1           0       -6.753136   -2.255697   -1.489551
     24          1           0       -8.213831   -1.734037   -0.633077
     25          6           0       -4.321562    0.889800   -0.051046
     26          6           0       -2.796691    0.832434    0.046239
     27          6           0       -2.165456    2.209264    0.255225
     28          1           0       -4.604424    1.553497   -0.879834
     29          1           0       -4.724199    1.344185    0.864575
     30          1           0       -2.397648    0.377957   -0.869639
     31          1           0       -2.516775    0.167953    0.873722
     32          1           0       -2.535615    2.666642    1.178474
     33          1           0       -2.415813    2.877840   -0.574792
     34          1           0       -1.074920    2.144982    0.322000
 ---------------------------------------------------------------------

 SCF Done:  E(RHF) =  -669.535423737     A.U. after   15 cycles
 E2 =    -0.2091177201D+01 EUMP2 =    -0.67162660093724D+03

 The electronic state is 1-A.
 Alpha  occ. eigenvalues --  -20.60750 -20.60745 -15.85804 -11.31171 -11.27744
 Alpha  occ. eigenvalues --  -11.27739 -11.27481 -11.26754 -11.26738 -11.22503
 Alpha  occ. eigenvalues --  -11.22163 -11.22084 -11.22066 -11.21937 -11.21463
 Alpha  occ. eigenvalues --   -1.59826  -1.39379  -1.19345  -1.09098  -1.08738
 Alpha  occ. eigenvalues --   -1.04751  -1.04227  -0.96686  -0.95571  -0.87708
 Alpha  occ. eigenvalues --   -0.86149  -0.82405  -0.80296  -0.78874  -0.77456
 Alpha  occ. eigenvalues --   -0.72023  -0.71149  -0.70450  -0.65723  -0.65000
 Alpha  occ. eigenvalues --   -0.64799  -0.62140  -0.61616  -0.60065  -0.58277
 Alpha  occ. eigenvalues --   -0.55956  -0.55243  -0.53491  -0.53160  -0.53047
 Alpha  occ. eigenvalues --   -0.52722  -0.50609  -0.48791  -0.48777  -0.48596
 Alpha  occ. eigenvalues --   -0.47317  -0.46423  -0.46327  -0.44785  -0.44477
 Alpha  occ. eigenvalues --   -0.37318  -0.36349
 Alpha virt. eigenvalues --    0.05080   0.11221   0.16560   0.19565   0.22500
 Alpha virt. eigenvalues --    0.23928   0.25603   0.25926   0.26606   0.27541
 Alpha virt. eigenvalues --    0.28868   0.29534   0.30812   0.31602   0.31800

 Mulliken charges:
               1
     1  C   -0.171714
     2  C   -0.218714
     3  C   -0.170934
     4  C    0.158604
     5  C   -0.171272
     6  C   -0.222072
     7  H    0.227095
     8  H    0.223363
     9  H    0.275573
    10  H    0.275850
    11  H    0.227706
    12  N    0.488003
    13  O   -0.460413
    14  O   -0.460471
    15  C   -0.298653
    16  C   -0.300154
    17  C   -0.476045
    18  H    0.151353
    19  H    0.148711
    20  H    0.153109
    21  H    0.152228
    22  H    0.155120
    23  H    0.156177
    24  H    0.161709
    25  C   -0.299150
    26  C   -0.298921
    27  C   -0.480591
    28  H    0.151962
    29  H    0.150220
    30  H    0.156453
    31  H    0.146609
    32  H    0.157149
    33  H    0.160966
    34  H    0.151145
 Sum of Mulliken charges =  -0.00000

 Dipole moment (field-independent basis, Debye):
    X=             -4.5565    Y=              0.5066    Z=              2.7411  Tot=              5.3415
 Quadrupole moment (field-independent basis, Debye-Ang):
   XX=           -128.4825   YY=            -91.8756   ZZ=            -93.5997
   XY=              1.4247   XZ=             11.2029   YZ=             -3.0365

 Normal termination of Gaussian 16 at Wed May  5 20:29:26 2021.
