 Gaussian 16, Revision A.03,
 Gaussian 16:  EM64L-G16RevA.03 25-Dec-2016

 -------------
 #p 6-31g* mp2
 -------------

 ------------------------------------------------------
 Input file generated by CHIRIPA (05-May-2021 14:53:18)
 ------------------------------------------------------
 Symbolic Z-matrix:
 Charge =  0 Multiplicity = 1

                         Standard orientation:
 ---------------------------------------------------------------------
 Center     Atomic      Atomic             Coordinates (Angstroms)
 Number     Number       Type             X           Y           Z
 ---------------------------------------------------------------------
      1          6           0        3.465505   -0.591864    0.311962
      2          6           0        2.582825   -1.658068   -0.337707
      3          6           0        2.636065   -2.997758    0.397268
      4          1           0        4.502511   -0.953161    0.344027
      5          1           0        3.151028   -0.451440    1.355409
      6          1           0        2.897975   -1.795447   -1.380023
      7          1           0        1.547832   -1.294112   -0.368403
      8          1           0        2.301538   -2.882336    1.433304
      9          1           0        3.659352   -3.386520    0.415936
     10          1           0        1.997850   -3.745356   -0.084022
     11          6           0        3.422878    0.752995   -0.411409
     12          6           0        4.305558    1.819199    0.238260
     13          6           0        4.252318    3.158890   -0.496716
     14          1           0        3.737355    0.612571   -1.454856
     15          1           0        2.385872    1.114292   -0.443474
     16          1           0        5.340551    1.455243    0.268955
     17          1           0        3.990408    1.956578    1.280576
     18          1           0        3.229031    3.547651   -0.515383
     19          1           0        4.586845    3.043467   -1.532751
     20          1           0        4.890533    3.906487   -0.015425
     21          6           0       -4.160737    1.983185    0.174853
     22          6           0       -3.327698    1.647210    1.247088
     23          6           0       -2.509000    0.515777    1.182727
     24          6           0       -2.548664   -0.260754    0.025698
     25          6           0       -3.367855    0.047786   -1.059207
     26          6           0       -4.178126    1.183811   -0.972849
     27          1           0       -4.793447    2.863893    0.233393
     28          1           0       -3.312127    2.266173    2.139660
     29          1           0       -1.854573    0.232556    1.998159
     30          1           0       -3.361607   -0.588627   -1.935766
     31          1           0       -4.824077    1.442311   -1.807097
     32          7           0       -1.686406   -1.460981   -0.054081
     33          8           0       -1.739730   -2.128728   -1.084571
     34          8           0       -0.973572   -1.711248    0.915389
 ---------------------------------------------------------------------

 SCF Done:  E(RHF) =  -669.536136336     A.U. after   15 cycles
 E2 =    -0.2091519247D+01 EUMP2 =    -0.67162765558291D+03

 The electronic state is 1-A.
 Alpha  occ. eigenvalues --  -20.60996 -20.60986 -15.86014 -11.31330 -11.27893
 Alpha  occ. eigenvalues --  -11.27885 -11.27624 -11.26894 -11.26883 -11.21170
 Alpha  occ. eigenvalues --  -11.20789 -11.20761 -11.20447 -11.20203 -11.19545
 Alpha  occ. eigenvalues --   -1.60051  -1.39605  -1.19496  -1.08902  -1.07622
 Alpha  occ. eigenvalues --   -1.04890  -1.02620  -0.95745  -0.95094  -0.86290
 Alpha  occ. eigenvalues --   -0.86125  -0.82578  -0.78766  -0.77634  -0.77358
 Alpha  occ. eigenvalues --   -0.72232  -0.71373  -0.70603  -0.65151  -0.64892
 Alpha  occ. eigenvalues --   -0.64257  -0.62237  -0.60007  -0.58543  -0.56668
 Alpha  occ. eigenvalues --   -0.55393  -0.54398  -0.53221  -0.52980  -0.51778
 Alpha  occ. eigenvalues --   -0.51529  -0.49088  -0.48990  -0.48974  -0.47061
 Alpha  occ. eigenvalues --   -0.45844  -0.45175  -0.44885  -0.44581  -0.42893
 Alpha  occ. eigenvalues --   -0.37472  -0.36490
 Alpha virt. eigenvalues --    0.04863   0.11165   0.16353   0.21296   0.23573
 Alpha virt. eigenvalues --    0.25278   0.27210   0.27349   0.28131   0.28330
 Alpha virt. eigenvalues --    0.28874   0.30850   0.32194   0.32396   0.32509

 Mulliken charges:
               1
     1  C   -0.298057
     2  C   -0.300355
     3  C   -0.471324
     4  H    0.146157
     5  H    0.148260
     6  H    0.146030
     7  H    0.162751
     8  H    0.158141
     9  H    0.144702
    10  H    0.167422
    11  C   -0.296746
    12  C   -0.298711
    13  C   -0.474917
    14  H    0.148530
    15  H    0.146066
    16  H    0.151704
    17  H    0.149949
    18  H    0.152481
    19  H    0.154943
    20  H    0.158262
    21  C   -0.170489
    22  C   -0.218556
    23  C   -0.170998
    24  C    0.158517
    25  C   -0.170692
    26  C   -0.218556
    27  H    0.226192
    28  H    0.223962
    29  H    0.275628
    30  H    0.276054
    31  H    0.224026
    32  N    0.487293
    33  O   -0.458551
    34  O   -0.459116
 Sum of Mulliken charges =  -0.00000

 Dipole moment (field-independent basis, Debye):
    X=             -3.3531    Y=              4.1208    Z=              0.2937  Tot=              5.3208
 Quadrupole moment (field-independent basis, Debye-Ang):
   XX=            -79.5762   YY=            -98.5439   ZZ=            -90.5275
   XY=            -10.2661   XZ=              0.7144   YZ=              1.7067

 Normal termination of Gaussian 16 at Wed May  5 22:04:40 2021.
