 Gaussian 16, Revision A.03,
 Gaussian 16:  EM64L-G16RevA.03 25-Dec-2016

 -------------
 #p 6-31g* mp2
 -------------

 ------------------------------------------------------
 Input file generated by CHIRIPA (05-May-2021 14:51:08)
 ------------------------------------------------------
 Symbolic Z-matrix:
 Charge =  0 Multiplicity = 1

                         Standard orientation:
 ---------------------------------------------------------------------
 Center     Atomic      Atomic             Coordinates (Angstroms)
 Number     Number       Type             X           Y           Z
 ---------------------------------------------------------------------
      1          6           0        2.840612   -0.481423   -0.056424
      2          6           0        2.324987   -1.424036    1.031508
      3          6           0        2.463235   -2.898323    0.650511
      4          1           0        2.292630   -0.673544   -0.989028
      5          1           0        3.895579   -0.710901   -0.260825
      6          1           0        1.271695   -1.191929    1.234775
      7          1           0        2.874129   -1.229517    1.961681
      8          1           0        3.512354   -3.152159    0.467428
      9          1           0        1.900815   -3.114358   -0.263608
     10          1           0        2.088638   -3.554448    1.442367
     11          6           0        2.709148    0.995853    0.309773
     12          6           0        3.224773    1.938466   -0.778159
     13          6           0        3.086525    3.412753   -0.397162
     14          1           0        1.654181    1.225331    0.514174
     15          1           0        3.257131    1.187974    1.242376
     16          1           0        2.675632    1.743947   -1.708333
     17          1           0        4.278066    1.706359   -0.981426
     18          1           0        3.648945    3.628788    0.516956
     19          1           0        2.037407    3.666589   -0.214080
     20          1           0        3.461122    4.068878   -1.189019
     21          6           0       -2.772853   -0.975922   -0.385301
     22          6           0       -1.385288   -1.618278   -0.380198
     23          6           0       -1.397531   -3.056016   -0.900347
     24          1           0       -3.453297   -1.583178    0.227221
     25          1           0       -3.173551   -0.993326   -1.408303
     26          1           0       -0.986751   -1.598419    0.642244
     27          1           0       -0.708022   -1.009318   -0.992648
     28          1           0       -1.770612   -3.090358   -1.929050
     29          1           0       -2.050924   -3.682806   -0.284870
     30          1           0       -0.395449   -3.495950   -0.888026
     31          6           0       -2.776906    0.461492    0.131952
     32          6           0       -4.164472    1.103848    0.126851
     33          6           0       -4.152230    2.541586    0.646999
     34          1           0       -2.376210    0.478896    1.154955
     35          1           0       -2.096463    1.068748   -0.480569
     36          1           0       -4.841739    0.494888    0.739299
     37          1           0       -4.563010    1.083989   -0.895592
     38          1           0       -3.498836    3.168377    0.031521
     39          1           0       -3.779148    2.575928    1.675702
     40          1           0       -5.154312    2.981520    0.634677
 ---------------------------------------------------------------------

 SCF Done:  E(RHF) =  -470.732537463     A.U. after   11 cycles
 E2 =    -0.1584254826D+01 EUMP2 =    -0.47231679228890D+03

 The electronic state is 1-A.
 Alpha  occ. eigenvalues --  -11.21667 -11.21650 -11.21585 -11.21500 -11.21469
 Alpha  occ. eigenvalues --  -11.21409 -11.21364 -11.21304 -11.21108 -11.21094
 Alpha  occ. eigenvalues --  -11.21058 -11.21038  -1.08505  -1.08379  -1.03622
 Alpha  occ. eigenvalues --   -1.03461  -0.96056  -0.95927  -0.87081  -0.86936
 Alpha  occ. eigenvalues --   -0.79730  -0.79500  -0.78344  -0.78174  -0.65130
 Alpha  occ. eigenvalues --   -0.65039  -0.61093  -0.60917  -0.59352  -0.59298
 Alpha  occ. eigenvalues --   -0.57647  -0.57555  -0.55333  -0.55201  -0.52767
 Alpha  occ. eigenvalues --   -0.52626  -0.52496  -0.52315  -0.49984  -0.49907
 Alpha  occ. eigenvalues --   -0.48066  -0.47836  -0.46863  -0.46458  -0.45996
 Alpha  occ. eigenvalues --   -0.45831  -0.45675  -0.45348  -0.43823  -0.43739
 Alpha virt. eigenvalues --    0.20229   0.23015   0.23377   0.25192   0.25448
 Alpha virt. eigenvalues --    0.25820   0.26623   0.27712   0.29084   0.29501
 Alpha virt. eigenvalues --    0.30196   0.30582   0.31596   0.31827   0.32427

 Mulliken charges:
               1
     1  C   -0.298852
     2  C   -0.304692
     3  C   -0.479595
     4  H    0.150035
     5  H    0.149237
     6  H    0.158667
     7  H    0.151262
     8  H    0.155172
     9  H    0.158541
    10  H    0.159767
    11  C   -0.299081
    12  C   -0.299509
    13  C   -0.475699
    14  H    0.150459
    15  H    0.149527
    16  H    0.151376
    17  H    0.151896
    18  H    0.155219
    19  H    0.155195
    20  H    0.160096
    21  C   -0.297665
    22  C   -0.304986
    23  C   -0.480726
    24  H    0.150004
    25  H    0.149712
    26  H    0.156300
    27  H    0.152469
    28  H    0.155114
    29  H    0.155528
    30  H    0.165510
    31  C   -0.298592
    32  C   -0.299641
    33  C   -0.475790
    34  H    0.149339
    35  H    0.149146
    36  H    0.152182
    37  H    0.152120
    38  H    0.155126
    39  H    0.155331
    40  H    0.160496
 Sum of Mulliken charges =  -0.00000

 Dipole moment (field-independent basis, Debye):
    X=             -0.0410    Y=             -0.0107    Z=              0.0085  Tot=              0.0432
 Quadrupole moment (field-independent basis, Debye-Ang):
   XX=            -83.9770   YY=            -86.9854   ZZ=            -83.8511
   XY=              0.2631   XZ=              0.2633   YZ=             -0.8373

 Normal termination of Gaussian 16 at Thu May  6 03:42:06 2021.
