 Gaussian 16, Revision A.03,
 Gaussian 16:  EM64L-G16RevA.03 25-Dec-2016

 -------------
 #p 6-31g* mp2
 -------------

 ------------------------------------------------------
 Input file generated by CHIRIPA (05-May-2021 14:57:21)
 ------------------------------------------------------
 Symbolic Z-matrix:
 Charge =  0 Multiplicity = 1

                         Standard orientation:
 ---------------------------------------------------------------------
 Center     Atomic      Atomic             Coordinates (Angstroms)
 Number     Number       Type             X           Y           Z
 ---------------------------------------------------------------------
      1          6           0       -1.659166    2.555980    0.716058
      2          6           0       -2.994333    2.425304    0.320111
      3          6           0       -3.499945    1.182587   -0.073031
      4          6           0       -2.638574    0.086636   -0.058146
      5          6           0       -1.303605    0.184751    0.331110
      6          6           0       -0.819543    1.437258    0.720286
      7          1           0       -1.274765    3.525154    1.019919
      8          1           0       -3.648691    3.292392    0.315840
      9          1           0       -4.529431    1.053116   -0.384179
     10          1           0       -0.675510   -0.697789    0.324967
     11          1           0        0.217801    1.535776    1.027299
     12          7           0       -3.162436   -1.234155   -0.472248
     13          8           0       -2.383134   -2.184337   -0.450353
     14          8           0       -4.342420   -1.294199   -0.810874
     15          6           0        1.704768   -2.398086    1.114113
     16          6           0        1.882628   -2.371353   -0.273032
     17          6           0        2.351629   -1.216718   -0.906598
     18          6           0        2.634166   -0.101901   -0.118789
     19          6           0        2.467286   -0.097417    1.265199
     20          6           0        1.997150   -1.263034    1.877456
     21          1           0        1.339996   -3.299298    1.598006
     22          1           0        1.656371   -3.251362   -0.868376
     23          1           0        2.498434   -1.168564   -1.978768
     24          1           0        2.701377    0.795475    1.832088
     25          1           0        1.859977   -1.280917    2.954910
     26          7           0        3.131277    1.126272   -0.778237
     27          8           0        3.372976    2.095211   -0.061736
     28          8           0        3.269802    1.096718   -1.999128
 ---------------------------------------------------------------------

 SCF Done:  E(RHF) =  -868.338467410     A.U. after   16 cycles
 E2 =    -0.2603866139D+01 EUMP2 =    -0.87094233354903D+03

 The electronic state is 1-A.
 Alpha  occ. eigenvalues --  -20.61537 -20.61500 -20.60917 -20.60879 -15.86561
 Alpha  occ. eigenvalues --  -15.85947 -11.31959 -11.31080 -11.28539 -11.28392
 Alpha  occ. eigenvalues --  -11.28088 -11.27660 -11.27542 -11.27520 -11.27346
 Alpha  occ. eigenvalues --  -11.27314 -11.26611 -11.26497  -1.60590  -1.59977
 Alpha  occ. eigenvalues --   -1.40143  -1.39538  -1.20142  -1.19237  -1.09473
 Alpha  occ. eigenvalues --   -1.08673  -1.05502  -1.04606  -0.96304  -0.95544
 Alpha  occ. eigenvalues --   -0.86863  -0.86014  -0.83109  -0.82395  -0.78193
 Alpha  occ. eigenvalues --   -0.77485  -0.72765  -0.72180  -0.71928  -0.71295
 Alpha  occ. eigenvalues --   -0.71118  -0.70341  -0.65715  -0.65408  -0.64891
 Alpha  occ. eigenvalues --   -0.64625  -0.62805  -0.62049  -0.55870  -0.55200
 Alpha  occ. eigenvalues --   -0.53635  -0.53504  -0.52960  -0.52712  -0.49544
 Alpha  occ. eigenvalues --   -0.49517  -0.48937  -0.48903  -0.45530  -0.44996
 Alpha  occ. eigenvalues --   -0.38093  -0.37222  -0.37142  -0.36117
 Alpha virt. eigenvalues --    0.04278   0.05044   0.10423   0.11432   0.15772
 Alpha virt. eigenvalues --    0.16652   0.20778   0.21959   0.26364   0.27448
 Alpha virt. eigenvalues --    0.28284   0.28590   0.30398   0.31334   0.32070

 Mulliken charges:
               1
     1  C   -0.169747
     2  C   -0.219451
     3  C   -0.170355
     4  C    0.155857
     5  C   -0.178852
     6  C   -0.226281
     7  H    0.229052
     8  H    0.223432
     9  H    0.274584
    10  H    0.281833
    11  H    0.227264
    12  N    0.488113
    13  O   -0.467278
    14  O   -0.459768
    15  C   -0.175243
    16  C   -0.215165
    17  C   -0.172104
    18  C    0.161900
    19  C   -0.191436
    20  C   -0.218605
    21  H    0.235192
    22  H    0.235010
    23  H    0.280253
    24  H    0.274183
    25  H    0.227726
    26  N    0.488856
    27  O   -0.464642
    28  O   -0.454329
 Sum of Mulliken charges =  -0.00000

 Dipole moment (field-independent basis, Debye):
    X=              0.3351    Y=              0.0766    Z=              3.6688  Tot=              3.6849
 Quadrupole moment (field-independent basis, Debye-Ang):
   XX=           -120.7052   YY=           -101.2763   ZZ=           -102.1276
   XY=            -26.2723   XZ=              3.1889   YZ=              1.9537

 Normal termination of Gaussian 16 at Thu May  6 19:26:46 2021.
