 Gaussian 16, Revision A.03,
 Gaussian 16:  EM64L-G16RevA.03 25-Dec-2016

 -------------
 #p 6-31g* mp2
 -------------

 ------------------------------------------------------
 Input file generated by CHIRIPA (05-May-2021 14:53:14)
 ------------------------------------------------------
 Symbolic Z-matrix:
 Charge =  0 Multiplicity = 1

                         Standard orientation:
 ---------------------------------------------------------------------
 Center     Atomic      Atomic             Coordinates (Angstroms)
 Number     Number       Type             X           Y           Z
 ---------------------------------------------------------------------
      1          6           0        2.235176   -0.214964   -0.054977
      2          6           0        3.443481   -1.140181    0.093208
      3          6           0        3.047567   -2.607787    0.258070
      4          1           0        1.587174   -0.324746    0.825356
      5          1           0        1.641184   -0.535106   -0.922201
      6          1           0        4.035765   -0.817543    0.959072
      7          1           0        4.088779   -1.028042   -0.787491
      8          1           0        2.475646   -2.952314   -0.609576
      9          1           0        2.422331   -2.740619    1.146910
     10          1           0        3.926585   -3.251462    0.362328
     11          6           0        2.614801    1.255463   -0.220673
     12          6           0        1.406496    2.180680   -0.368858
     13          6           0        1.802410    3.648286   -0.533720
     14          1           0        3.208793    1.575605    0.646551
     15          1           0        3.262803    1.365245   -1.101006
     16          1           0        0.761197    2.068541    0.511841
     17          1           0        0.814211    1.858042   -1.234722
     18          1           0        2.427646    3.781118   -1.422560
     19          1           0        2.374330    3.992813    0.333926
     20          1           0        0.923392    4.291961   -0.637978
     21          6           0       -1.246558   -2.794856   -0.383807
     22          6           0       -0.802865   -2.176516    0.789782
     23          6           0       -1.155715   -0.853571    1.072384
     24          6           0       -1.957165   -0.175542    0.155191
     25          6           0       -2.414997   -0.764098   -1.022638
     26          6           0       -2.049792   -2.087920   -1.284684
     27          1           0       -0.967657   -3.822892   -0.595355
     28          1           0       -0.178955   -2.723098    1.491230
     29          1           0       -0.826137   -0.350597    1.973391
     30          1           0       -3.035802   -0.193599   -1.702748
     31          1           0       -2.395827   -2.565588   -2.196900
     32          7           0       -2.337251    1.225464    0.443487
     33          8           0       -3.044291    1.801163   -0.380711
     34          8           0       -1.920925    1.721347    1.488193
 ---------------------------------------------------------------------

 SCF Done:  E(RHF) =  -669.533985986     A.U. after   15 cycles
 E2 =    -0.2096339435D+01 EUMP2 =    -0.67163032542081D+03

 The electronic state is 1-A.
 Alpha  occ. eigenvalues --  -20.60890 -20.60881 -15.85900 -11.31200 -11.27766
 Alpha  occ. eigenvalues --  -11.27748 -11.27492 -11.26779 -11.26726 -11.21907
 Alpha  occ. eigenvalues --  -11.21714 -11.21422 -11.21217 -11.21113 -11.20520
 Alpha  occ. eigenvalues --   -1.59935  -1.39497  -1.19377  -1.08779  -1.08423
 Alpha  occ. eigenvalues --   -1.04782  -1.03502  -0.95987  -0.95623  -0.87014
 Alpha  occ. eigenvalues --   -0.86173  -0.82478  -0.79623  -0.78243  -0.77491
 Alpha  occ. eigenvalues --   -0.72135  -0.71230  -0.70494  -0.65100  -0.65011
 Alpha  occ. eigenvalues --   -0.64801  -0.62137  -0.60901  -0.59393  -0.57569
 Alpha  occ. eigenvalues --   -0.55338  -0.55252  -0.53223  -0.52911  -0.52619
 Alpha  occ. eigenvalues --   -0.52356  -0.49962  -0.48909  -0.48885  -0.47908
 Alpha  occ. eigenvalues --   -0.46678  -0.45878  -0.45633  -0.44642  -0.43725
 Alpha  occ. eigenvalues --   -0.37334  -0.36206
 Alpha virt. eigenvalues --    0.04966   0.11127   0.16337   0.20195   0.23165
 Alpha virt. eigenvalues --    0.24157   0.25483   0.26678   0.26981   0.28792
 Alpha virt. eigenvalues --    0.29137   0.30086   0.31334   0.31936   0.32307

 Mulliken charges:
               1
     1  C   -0.297355
     2  C   -0.299187
     3  C   -0.474682
     4  H    0.145110
     5  H    0.150671
     6  H    0.152865
     7  H    0.153495
     8  H    0.152650
     9  H    0.145342
    10  H    0.161824
    11  C   -0.297783
    12  C   -0.310491
    13  C   -0.475404
    14  H    0.149001
    15  H    0.148117
    16  H    0.165547
    17  H    0.148319
    18  H    0.151322
    19  H    0.154302
    20  H    0.167997
    21  C   -0.172521
    22  C   -0.212155
    23  C   -0.171229
    24  C    0.160914
    25  C   -0.172258
    26  C   -0.219033
    27  H    0.226140
    28  H    0.225085
    29  H    0.274265
    30  H    0.275358
    31  H    0.223323
    32  N    0.489371
    33  O   -0.458873
    34  O   -0.460049
 Sum of Mulliken charges =  -0.00000

 Dipole moment (field-independent basis, Debye):
    X=              1.2206    Y=             -4.8374    Z=             -1.0131  Tot=              5.0909
 Quadrupole moment (field-independent basis, Debye-Ang):
   XX=            -99.5504   YY=            -94.7498   ZZ=            -90.7204
   XY=              9.2266   XZ=              4.7725   YZ=             -0.3123

 Normal termination of Gaussian 16 at Thu May  6 13:48:19 2021.
