 Gaussian 16, Revision A.03,
 Gaussian 16:  EM64L-G16RevA.03 25-Dec-2016

 -------------
 #p 6-31g* mp2
 -------------

 ------------------------------------------------------
 Input file generated by CHIRIPA (05-May-2021 14:53:18)
 ------------------------------------------------------
 Symbolic Z-matrix:
 Charge =  0 Multiplicity = 1

                         Standard orientation:
 ---------------------------------------------------------------------
 Center     Atomic      Atomic             Coordinates (Angstroms)
 Number     Number       Type             X           Y           Z
 ---------------------------------------------------------------------
      1          6           0       -3.107523   -0.118224   -0.197992
      2          6           0       -4.498499   -0.246407    0.423893
      3          6           0       -5.252742    1.082981    0.464367
      4          1           0       -2.524651    0.618488    0.371623
      5          1           0       -3.204554    0.280538   -1.217290
      6          1           0       -4.398975   -0.646111    1.441217
      7          1           0       -5.078063   -0.983040   -0.147153
      8          1           0       -5.381437    1.483810   -0.546264
      9          1           0       -4.698491    1.822653    1.051130
     10          1           0       -6.244558    0.968354    0.912720
     11          6           0       -2.341123   -1.438868   -0.245518
     12          6           0       -0.950147   -1.310685   -0.867403
     13          6           0       -0.195904   -2.640073   -0.907877
     14          1           0       -2.244092   -1.837630    0.773780
     15          1           0       -2.923995   -2.175580   -0.815133
     16          1           0       -0.370584   -0.574052   -0.296357
     17          1           0       -1.049671   -0.910981   -1.884727
     18          1           0       -0.750155   -3.379745   -1.494641
     19          1           0       -0.067209   -3.040902    0.102754
     20          1           0        0.795912   -2.525446   -1.356231
     21          6           0        3.299667   -1.525387    0.837807
     22          6           0        2.444425   -0.885761    1.741114
     23          6           0        1.790177    0.296921    1.383668
     24          6           0        2.015142    0.814510    0.108999
     25          6           0        2.861246    0.200627   -0.813251
     26          6           0        3.504985   -0.981111   -0.434249
     27          1           0        3.803821   -2.443757    1.123853
     28          1           0        2.283085   -1.306171    2.729685
     29          1           0        1.122789    0.812739    2.063334
     30          1           0        3.002195    0.643770   -1.791604
     31          1           0        4.168622   -1.475690   -1.137827
     32          7           0        1.328080    2.066064   -0.280823
     33          8           0        1.543060    2.501748   -1.409805
     34          8           0        0.587593    2.587649    0.549998
 ---------------------------------------------------------------------

 SCF Done:  E(RHF) =  -669.534364484     A.U. after   15 cycles
 E2 =    -0.2095156740D+01 EUMP2 =    -0.67162952122411D+03

 The electronic state is 1-A.
 Alpha  occ. eigenvalues --  -20.60869 -20.60862 -15.85904 -11.31244 -11.27854
 Alpha  occ. eigenvalues --  -11.27839 -11.27602 -11.26884 -11.26873 -11.21365
 Alpha  occ. eigenvalues --  -11.21255 -11.21161 -11.21035 -11.20930 -11.20639
 Alpha  occ. eigenvalues --   -1.59931  -1.39487  -1.19474  -1.08858  -1.08140
 Alpha  occ. eigenvalues --   -1.04876  -1.03272  -0.95721  -0.95685  -0.86740
 Alpha  occ. eigenvalues --   -0.86269  -0.82522  -0.79361  -0.77942  -0.77566
 Alpha  occ. eigenvalues --   -0.72130  -0.71263  -0.70567  -0.65121  -0.64873
 Alpha  occ. eigenvalues --   -0.64791  -0.62218  -0.60722  -0.59146  -0.57370
 Alpha  occ. eigenvalues --   -0.55365  -0.55076  -0.53137  -0.52960  -0.52333
 Alpha  occ. eigenvalues --   -0.52132  -0.49676  -0.48892  -0.48884  -0.47680
 Alpha  occ. eigenvalues --   -0.46412  -0.45499  -0.45428  -0.44828  -0.43525
 Alpha  occ. eigenvalues --   -0.37309  -0.36436
 Alpha virt. eigenvalues --    0.04949   0.11078   0.16432   0.21270   0.23109
 Alpha virt. eigenvalues --    0.24498   0.26701   0.27305   0.27523   0.28010
 Alpha virt. eigenvalues --    0.28486   0.30939   0.31610   0.31824   0.32232

 Mulliken charges:
               1
     1  C   -0.301375
     2  C   -0.299237
     3  C   -0.475923
     4  H    0.157495
     5  H    0.152041
     6  H    0.148965
     7  H    0.150050
     8  H    0.156393
     9  H    0.158756
    10  H    0.157993
    11  C   -0.296951
    12  C   -0.304930
    13  C   -0.474505
    14  H    0.144843
    15  H    0.148290
    16  H    0.155342
    17  H    0.154116
    18  H    0.153430
    19  H    0.149680
    20  H    0.157880
    21  C   -0.168754
    22  C   -0.214567
    23  C   -0.175963
    24  C    0.159721
    25  C   -0.171029
    26  C   -0.218094
    27  H    0.226455
    28  H    0.223942
    29  H    0.275234
    30  H    0.276103
    31  H    0.224180
    32  N    0.491328
    33  O   -0.459628
    34  O   -0.461280
 Sum of Mulliken charges =  -0.00000

 Dipole moment (field-independent basis, Debye):
    X=              2.5572    Y=             -4.2638    Z=              1.3721  Tot=              5.1577
 Quadrupole moment (field-independent basis, Debye-Ang):
   XX=            -84.8907   YY=           -103.7405   ZZ=            -89.6976
   XY=             -6.9083   XZ=              1.3256   YZ=              0.7934

 Normal termination of Gaussian 16 at Wed May  5 20:27:13 2021.
