 Gaussian 16, Revision A.03,
 Gaussian 16:  EM64L-G16RevA.03 25-Dec-2016

 -------------
 #p 6-31g* mp2
 -------------

 ------------------------------------------------------
 Input file generated by CHIRIPA (05-May-2021 14:57:22)
 ------------------------------------------------------
 Symbolic Z-matrix:
 Charge =  0 Multiplicity = 1

                         Standard orientation:
 ---------------------------------------------------------------------
 Center     Atomic      Atomic             Coordinates (Angstroms)
 Number     Number       Type             X           Y           Z
 ---------------------------------------------------------------------
      1          6           0        2.857525    2.507890    0.154842
      2          6           0        1.856105    1.793892    0.821091
      3          6           0        1.746791    0.409075    0.663352
      4          6           0        2.659824   -0.232611   -0.172052
      5          6           0        3.668456    0.450889   -0.849385
      6          6           0        3.758915    1.835295   -0.676803
      7          1           0        2.935119    3.583489    0.283142
      8          1           0        1.154691    2.313608    1.467587
      9          1           0        0.981138   -0.168273    1.167199
     10          1           0        4.353085   -0.094903   -1.487203
     11          1           0        4.537638    2.387217   -1.195473
     12          7           0        2.554078   -1.698437   -0.346899
     13          8           0        3.370766   -2.240367   -1.088499
     14          8           0        1.656509   -2.277667    0.260966
     15          6           0       -1.528361   -0.569680    2.318455
     16          6           0       -1.807559    0.762809    1.997451
     17          6           0       -2.443751    1.085149    0.794994
     18          6           0       -2.788322    0.045232   -0.067057
     19          6           0       -2.523632   -1.292030    0.224421
     20          6           0       -1.886656   -1.591046    1.432478
     21          1           0       -1.033848   -0.811021    3.254728
     22          1           0       -1.530450    1.558078    2.683601
     23          1           0       -2.671793    2.108184    0.521472
     24          1           0       -2.811960   -2.063055   -0.479712
     25          1           0       -1.671074   -2.626768    1.679151
     26          7           0       -3.462245    0.374133   -1.343008
     27          8           0       -3.755604   -0.560388   -2.085469
     28          8           0       -3.684345    1.560219   -1.576479
 ---------------------------------------------------------------------

 SCF Done:  E(RHF) =  -868.337833500     A.U. after   16 cycles
 E2 =    -0.2602680503D+01 EUMP2 =    -0.87094051400260D+03

 The electronic state is 1-A.
 Alpha  occ. eigenvalues --  -20.61094 -20.61056 -20.60928 -20.60904 -15.86126
 Alpha  occ. eigenvalues --  -15.85972 -11.31447 -11.31349 -11.28091 -11.27937
 Alpha  occ. eigenvalues --  -11.27892 -11.27837 -11.27748 -11.27699 -11.27208
 Alpha  occ. eigenvalues --  -11.26968 -11.26920 -11.26903  -1.60147  -1.59990
 Alpha  occ. eigenvalues --   -1.39706  -1.39540  -1.19646  -1.19530  -1.09030
 Alpha  occ. eigenvalues --   -1.08967  -1.05040  -1.04913  -0.95858  -0.95788
 Alpha  occ. eigenvalues --   -0.86419  -0.86344  -0.82661  -0.82635  -0.77759
 Alpha  occ. eigenvalues --   -0.77627  -0.72364  -0.72189  -0.71461  -0.71312
 Alpha  occ. eigenvalues --   -0.70757  -0.70636  -0.65274  -0.65201  -0.65077
 Alpha  occ. eigenvalues --   -0.64904  -0.62404  -0.62273  -0.55535  -0.55491
 Alpha  occ. eigenvalues --   -0.53558  -0.53245  -0.53093  -0.52782  -0.49114
 Alpha  occ. eigenvalues --   -0.49093  -0.48956  -0.48936  -0.45143  -0.44920
 Alpha  occ. eigenvalues --   -0.37642  -0.37532  -0.36753  -0.36359
 Alpha virt. eigenvalues --    0.04651   0.04979   0.10931   0.11115   0.16176
 Alpha virt. eigenvalues --    0.16339   0.20078   0.22054   0.25686   0.27725
 Alpha virt. eigenvalues --    0.28242   0.28980   0.30070   0.31705   0.32435

 Mulliken charges:
               1
     1  C   -0.169321
     2  C   -0.222530
     3  C   -0.174703
     4  C    0.155670
     5  C   -0.168949
     6  C   -0.219186
     7  H    0.225850
     8  H    0.215651
     9  H    0.285250
    10  H    0.276241
    11  H    0.224471
    12  N    0.488352
    13  O   -0.458115
    14  O   -0.467074
    15  C   -0.192119
    16  C   -0.223801
    17  C   -0.171301
    18  C    0.159614
    19  C   -0.168700
    20  C   -0.203413
    21  H    0.229057
    22  H    0.218863
    23  H    0.274362
    24  H    0.280725
    25  H    0.235454
    26  N    0.488027
    27  O   -0.456685
    28  O   -0.461691
 Sum of Mulliken charges =  -0.00000

 Dipole moment (field-independent basis, Debye):
    X=              2.5908    Y=              3.7048    Z=              4.9509  Tot=              6.7044
 Quadrupole moment (field-independent basis, Debye-Ang):
   XX=           -113.5884   YY=           -102.9693   ZZ=           -104.7313
   XY=             18.0855   XZ=            -14.0631   YZ=              0.0943

 Normal termination of Gaussian 16 at Thu May  6 08:09:11 2021.
