 Gaussian 16, Revision A.03,
 Gaussian 16:  EM64L-G16RevA.03 25-Dec-2016

 -------------
 #p 6-31g* mp2
 -------------

 ------------------------------------------------------
 Input file generated by CHIRIPA (05-May-2021 14:51:11)
 ------------------------------------------------------
 Symbolic Z-matrix:
 Charge =  0 Multiplicity = 1

                         Standard orientation:
 ---------------------------------------------------------------------
 Center     Atomic      Atomic             Coordinates (Angstroms)
 Number     Number       Type             X           Y           Z
 ---------------------------------------------------------------------
      1          6           0       -4.346037    0.051442    0.271013
      2          6           0       -3.294300    0.787553   -0.559635
      3          6           0       -1.923900    0.821696    0.117589
      4          1           0       -4.432876    0.535563    1.253372
      5          1           0       -4.002675   -0.975482    0.457891
      6          1           0       -3.640176    1.812360   -0.746064
      7          1           0       -3.210093    0.301740   -1.540202
      8          1           0       -1.553579   -0.194185    0.289196
      9          1           0       -1.986105    1.325018    1.087846
     10          1           0       -1.187258    1.352630   -0.493417
     11          6           0       -5.721269    0.008876   -0.392806
     12          6           0       -6.773006   -0.727234    0.437842
     13          6           0       -8.143406   -0.761377   -0.239382
     14          1           0       -6.064631    1.035801   -0.579684
     15          1           0       -5.634430   -0.475245   -1.375165
     16          1           0       -6.857214   -0.241421    1.418409
     17          1           0       -6.427131   -1.752041    0.624271
     18          1           0       -8.081201   -1.264699   -1.209639
     19          1           0       -8.513728    0.254504   -0.410989
     20          1           0       -8.880048   -1.292311    0.371624
     21          6           0        4.413982    0.006806    0.505951
     22          6           0        3.170497    0.511763   -0.226680
     23          6           0        1.938985    0.580161    0.676921
     24          1           0        4.207401   -0.988524    0.922589
     25          1           0        4.620930    0.666385    1.360072
     26          1           0        2.966761   -0.147773   -1.079980
     27          1           0        3.380125    1.505925   -0.641787
     28          1           0        2.117712    1.253609    1.521388
     29          1           0        1.701999   -0.409484    1.080705
     30          1           0        1.061587    0.943624    0.132929
     31          6           0        5.653324   -0.067125   -0.384157
     32          6           0        6.896809   -0.572081    0.348473
     33          6           0        8.128321   -0.640480   -0.555128
     34          1           0        5.446376   -0.726703   -1.238279
     35          1           0        5.859905    0.928205   -0.800795
     36          1           0        6.687181   -1.566244    0.763579
     37          1           0        7.100545    0.087454    1.201773
     38          1           0        8.365307    0.349165   -0.958912
     39          1           0        7.949595   -1.313928   -1.399596
     40          1           0        9.005720   -1.003943   -0.011136
 ---------------------------------------------------------------------

 SCF Done:  E(RHF) =  -470.732898393     A.U. after   11 cycles
 E2 =    -0.1582327568D+01 EUMP2 =    -0.47231522596099D+03

 The electronic state is 1-A.
 Alpha  occ. eigenvalues --  -11.21598 -11.21587 -11.21571 -11.21522 -11.21400
 Alpha  occ. eigenvalues --  -11.21356 -11.21340 -11.21294 -11.21068 -11.21055
 Alpha  occ. eigenvalues --  -11.21048 -11.20896  -1.08425  -1.08375  -1.03535
 Alpha  occ. eigenvalues --   -1.03457  -0.96019  -0.95874  -0.87083  -0.86847
 Alpha  occ. eigenvalues --   -0.79650  -0.79472  -0.78238  -0.78189  -0.65055
 Alpha  occ. eigenvalues --   -0.65007  -0.60931  -0.60855  -0.59599  -0.59100
 Alpha  occ. eigenvalues --   -0.57649  -0.57459  -0.55287  -0.55173  -0.53064
 Alpha  occ. eigenvalues --   -0.52450  -0.52347  -0.52135  -0.49945  -0.49819
 Alpha  occ. eigenvalues --   -0.47928  -0.47821  -0.46634  -0.46551  -0.45781
 Alpha  occ. eigenvalues --   -0.45729  -0.45704  -0.45659  -0.43988  -0.43469
 Alpha virt. eigenvalues --    0.22500   0.22991   0.23616   0.24848   0.26576
 Alpha virt. eigenvalues --    0.26735   0.26913   0.27338   0.27623   0.28986
 Alpha virt. eigenvalues --    0.29703   0.31141   0.31654   0.31691   0.32122

 Mulliken charges:
               1
     1  C   -0.298668
     2  C   -0.299991
     3  C   -0.476728
     4  H    0.149711
     5  H    0.149530
     6  H    0.151767
     7  H    0.151806
     8  H    0.156883
     9  H    0.156003
    10  H    0.160285
    11  C   -0.298270
    12  C   -0.299609
    13  C   -0.475694
    14  H    0.149519
    15  H    0.149605
    16  H    0.151960
    17  H    0.151913
    18  H    0.155157
    19  H    0.155178
    20  H    0.160246
    21  C   -0.298369
    22  C   -0.299342
    23  C   -0.481913
    24  H    0.149427
    25  H    0.149381
    26  H    0.151326
    27  H    0.151258
    28  H    0.154214
    29  H    0.154143
    30  H    0.169718
    31  C   -0.298138
    32  C   -0.299571
    33  C   -0.475661
    34  H    0.149339
    35  H    0.149496
    36  H    0.151853
    37  H    0.151871
    38  H    0.155119
    39  H    0.155102
    40  H    0.160140
 Sum of Mulliken charges =  -0.00000

 Dipole moment (field-independent basis, Debye):
    X=             -0.0437    Y=              0.0064    Z=              0.0055  Tot=              0.0445
 Quadrupole moment (field-independent basis, Debye-Ang):
   XX=            -86.9913   YY=            -83.0819   ZZ=            -84.9470
   XY=              0.0021   XZ=              0.0486   YZ=              0.5828

 Normal termination of Gaussian 16 at Wed May  5 19:51:26 2021.
