 Gaussian 16, Revision A.03,
 Gaussian 16:  EM64L-G16RevA.03 25-Dec-2016

 -------------
 #p 6-31g* mp2
 -------------

 ------------------------------------------------------
 Input file generated by CHIRIPA (05-May-2021 14:55:20)
 ------------------------------------------------------
 Symbolic Z-matrix:
 Charge =  0 Multiplicity = 1

                         Standard orientation:
 ---------------------------------------------------------------------
 Center     Atomic      Atomic             Coordinates (Angstroms)
 Number     Number       Type             X           Y           Z
 ---------------------------------------------------------------------
      1          6           0        5.322593    1.828934   -0.305866
      2          6           0        5.117207    0.867765   -1.301101
      3          6           0        4.181740   -0.154976   -1.118204
      4          6           0        3.465880   -0.186480    0.077556
      5          6           0        3.647844    0.756582    1.087909
      6          6           0        4.588550    1.770378    0.883366
      7          1           0        6.051321    2.619949   -0.456353
      8          1           0        5.685843    0.910758   -2.225682
      9          1           0        4.002738   -0.911941   -1.872113
     10          1           0        3.065909    0.687570    1.998957
     11          1           0        4.745958    2.515487    1.658014
     12          7           0        2.472770   -1.264475    0.282639
     13          8           0        1.854836   -1.270149    1.345072
     14          8           0        2.331108   -2.083321   -0.622932
     15          6           0       -4.191744   -0.602479   -0.079140
     16          6           0       -2.710940   -0.268448    0.104237
     17          6           0       -1.815200   -1.506622    0.055562
     18          1           0       -4.500617   -1.311158    0.701448
     19          1           0       -4.328045   -1.117225   -1.040313
     20          1           0       -2.577673    0.246747    1.064149
     21          1           0       -2.405604    0.439667   -0.676763
     22          1           0       -1.918673   -2.019386   -0.906191
     23          1           0       -2.091720   -2.213401    0.844613
     24          1           0       -0.760874   -1.244880    0.188775
     25          6           0       -5.099920    0.625041   -0.032875
     26          6           0       -6.580724    0.291010   -0.216252
     27          6           0       -7.476463    1.529184   -0.167577
     28          1           0       -4.963618    1.139786    0.928298
     29          1           0       -4.791046    1.333720   -0.813463
     30          1           0       -6.886059   -0.417105    0.564748
     31          1           0       -6.713991   -0.224185   -1.176164
     32          1           0       -7.199943    2.235963   -0.956628
     33          1           0       -7.372990    2.041948    0.794176
     34          1           0       -8.530790    1.267441   -0.300790
 ---------------------------------------------------------------------

 SCF Done:  E(RHF) =  -669.536179081     A.U. after   15 cycles
 E2 =    -0.2091027882D+01 EUMP2 =    -0.67162720696318D+03

 The electronic state is 1-A.
 Alpha  occ. eigenvalues --  -20.60959 -20.60954 -15.85979 -11.31302 -11.27863
 Alpha  occ. eigenvalues --  -11.27860 -11.27601 -11.26868 -11.26858 -11.21133
 Alpha  occ. eigenvalues --  -11.20806 -11.20705 -11.20629 -11.20570 -11.19530
 Alpha  occ. eigenvalues --   -1.60015  -1.39569  -1.19468  -1.08873  -1.07724
 Alpha  occ. eigenvalues --   -1.04863  -1.02731  -0.95715  -0.95144  -0.86264
 Alpha  occ. eigenvalues --   -0.86151  -0.82547  -0.78822  -0.77602  -0.77516
 Alpha  occ. eigenvalues --   -0.72188  -0.71339  -0.70576  -0.65122  -0.64865
 Alpha  occ. eigenvalues --   -0.64367  -0.62209  -0.60140  -0.58564  -0.56751
 Alpha  occ. eigenvalues --   -0.55367  -0.54448  -0.53199  -0.52954  -0.51793
 Alpha  occ. eigenvalues --   -0.51578  -0.49113  -0.48949  -0.48926  -0.47114
 Alpha  occ. eigenvalues --   -0.45892  -0.45063  -0.44992  -0.44947  -0.42933
 Alpha  occ. eigenvalues --   -0.37446  -0.36463
 Alpha virt. eigenvalues --    0.04885   0.11192   0.16385   0.21330   0.23514
 Alpha virt. eigenvalues --    0.25179   0.27248   0.27303   0.28128   0.28207
 Alpha virt. eigenvalues --    0.28930   0.30855   0.32168   0.32423   0.32436

 Mulliken charges:
               1
     1  C   -0.170501
     2  C   -0.218623
     3  C   -0.170804
     4  C    0.159223
     5  C   -0.170716
     6  C   -0.218584
     7  H    0.226049
     8  H    0.223866
     9  H    0.275970
    10  H    0.275940
    11  H    0.223894
    12  N    0.486942
    13  O   -0.459188
    14  O   -0.458296
    15  C   -0.297250
    16  C   -0.300187
    17  C   -0.478949
    18  H    0.149232
    19  H    0.148308
    20  H    0.149467
    21  H    0.146308
    22  H    0.151187
    23  H    0.154032
    24  H    0.178298
    25  C   -0.297349
    26  C   -0.299081
    27  C   -0.475242
    28  H    0.148071
    29  H    0.147583
    30  H    0.151718
    31  H    0.151369
    32  H    0.154045
    33  H    0.154329
    34  H    0.158940
 Sum of Mulliken charges =  -0.00000

 Dipole moment (field-independent basis, Debye):
    X=              3.8329    Y=              3.7336    Z=             -0.6934  Tot=              5.3956
 Quadrupole moment (field-independent basis, Debye-Ang):
   XX=            -72.4315   YY=            -96.7120   ZZ=            -89.9231
   XY=             13.1687   XZ=             -3.6726   YZ=              2.2552

 Normal termination of Gaussian 16 at Thu May  6 19:05:31 2021.
