 Gaussian 16, Revision A.03,
 Gaussian 16:  EM64L-G16RevA.03 25-Dec-2016

 -------------
 #p 6-31g* mp2
 -------------

 ------------------------------------------------------
 Input file generated by CHIRIPA (05-May-2021 14:55:20)
 ------------------------------------------------------
 Symbolic Z-matrix:
 Charge =  0 Multiplicity = 1

                         Standard orientation:
 ---------------------------------------------------------------------
 Center     Atomic      Atomic             Coordinates (Angstroms)
 Number     Number       Type             X           Y           Z
 ---------------------------------------------------------------------
      1          6           0       -2.272977    2.478094   -0.450982
      2          6           0       -3.538929    2.179017    0.063256
      3          6           0       -3.972015    0.853061    0.157187
      4          6           0       -3.109488   -0.153505   -0.274278
      5          6           0       -1.842461    0.112455   -0.791189
      6          6           0       -1.430269    1.445679   -0.875814
      7          1           0       -1.944661    3.510952   -0.520335
      8          1           0       -4.195506    2.978765    0.393945
      9          1           0       -4.947018    0.593274    0.551266
     10          1           0       -1.210285   -0.706267   -1.112851
     11          1           0       -0.446585    1.674984   -1.275600
     12          7           0       -3.556917   -1.561083   -0.179764
     13          8           0       -2.778174   -2.429721   -0.566627
     14          8           0       -4.677883   -1.769050    0.279389
     15          6           0        4.566513    0.210761    0.218880
     16          6           0        5.447658   -0.664461   -0.673059
     17          6           0        6.806273   -0.028326   -0.968508
     18          1           0        4.418932    1.185588   -0.265762
     19          1           0        5.093331    0.407571    1.162873
     20          1           0        4.918758   -0.860707   -1.614531
     21          1           0        5.593000   -1.637386   -0.186326
     22          1           0        7.357236    0.152219   -0.039828
     23          1           0        6.679163    0.933311   -1.476147
     24          1           0        7.419936   -0.670833   -1.607617
     25          6           0        3.204998   -0.411671    0.523150
     26          6           0        2.323853    0.463551    1.415089
     27          6           0        0.965237   -0.172585    1.710538
     28          1           0        2.678178   -0.608481   -0.420843
     29          1           0        3.352577   -1.386499    1.007791
     30          1           0        2.178510    1.436476    0.928356
     31          1           0        2.852751    0.659796    2.356562
     32          1           0        1.092347   -1.134222    2.218177
     33          1           0        0.414275   -0.353130    0.781858
     34          1           0        0.351574    0.469923    2.349647
 ---------------------------------------------------------------------

 SCF Done:  E(RHF) =  -669.534336225     A.U. after   15 cycles
 E2 =    -0.2092533273D+01 EUMP2 =    -0.67162686949804D+03

 The electronic state is 1-A.
 Alpha  occ. eigenvalues --  -20.60760 -20.60755 -15.85816 -11.31195 -11.27778
 Alpha  occ. eigenvalues --  -11.27766 -11.27517 -11.26792 -11.26780 -11.21993
 Alpha  occ. eigenvalues --  -11.21866 -11.21765 -11.21696 -11.21306 -11.21261
 Alpha  occ. eigenvalues --   -1.59835  -1.39389  -1.19381  -1.08774  -1.08760
 Alpha  occ. eigenvalues --   -1.04804  -1.03828  -0.96269  -0.95600  -0.87283
 Alpha  occ. eigenvalues --   -0.86185  -0.82440  -0.79896  -0.78582  -0.77482
 Alpha  occ. eigenvalues --   -0.72035  -0.71158  -0.70500  -0.65423  -0.65033
 Alpha  occ. eigenvalues --   -0.64797  -0.62199  -0.61211  -0.59632  -0.57876
 Alpha  occ. eigenvalues --   -0.55629  -0.55276  -0.53230  -0.52912  -0.52864
 Alpha  occ. eigenvalues --   -0.52608  -0.50184  -0.48794  -0.48788  -0.48201
 Alpha  occ. eigenvalues --   -0.46944  -0.46115  -0.46062  -0.44788  -0.44089
 Alpha  occ. eigenvalues --   -0.37357  -0.36300
 Alpha virt. eigenvalues --    0.05037   0.11194   0.16451   0.20246   0.22776
 Alpha virt. eigenvalues --    0.23985   0.25832   0.26655   0.27590   0.28014
 Alpha virt. eigenvalues --    0.28787   0.30369   0.31428   0.31563   0.32234

 Mulliken charges:
               1
     1  C   -0.171357
     2  C   -0.218475
     3  C   -0.171316
     4  C    0.158221
     5  C   -0.170661
     6  C   -0.214678
     7  H    0.225622
     8  H    0.223475
     9  H    0.275704
    10  H    0.275370
    11  H    0.223590
    12  N    0.488249
    13  O   -0.460363
    14  O   -0.460441
    15  C   -0.298011
    16  C   -0.299851
    17  C   -0.475816
    18  H    0.146760
    19  H    0.150912
    20  H    0.151455
    21  H    0.153961
    22  H    0.155799
    23  H    0.154211
    24  H    0.161498
    25  C   -0.297439
    26  C   -0.300560
    27  C   -0.475635
    28  H    0.144416
    29  H    0.153914
    30  H    0.144500
    31  H    0.154105
    32  H    0.159688
    33  H    0.152321
    34  H    0.160833
 Sum of Mulliken charges =  -0.00000

 Dipole moment (field-independent basis, Debye):
    X=              1.5856    Y=              4.9155    Z=             -0.2748  Tot=              5.1722
 Quadrupole moment (field-independent basis, Debye-Ang):
   XX=           -101.5495   YY=            -96.2962   ZZ=            -93.8903
   XY=            -18.0823   XZ=             -0.6347   YZ=             -0.9989

 Normal termination of Gaussian 16 at Thu May  6 10:51:42 2021.
