 Gaussian 16, Revision A.03,
 Gaussian 16:  EM64L-G16RevA.03 25-Dec-2016

 -------------
 #p 6-31g* mp2
 -------------

 ------------------------------------------------------
 Input file generated by CHIRIPA (05-May-2021 14:55:19)
 ------------------------------------------------------
 Symbolic Z-matrix:
 Charge =  0 Multiplicity = 1

                         Standard orientation:
 ---------------------------------------------------------------------
 Center     Atomic      Atomic             Coordinates (Angstroms)
 Number     Number       Type             X           Y           Z
 ---------------------------------------------------------------------
      1          6           0        1.682694   -2.813319    0.470154
      2          6           0        0.817500   -2.000416   -0.269541
      3          6           0        1.189214   -0.697831   -0.615442
      4          6           0        2.439133   -0.238335   -0.203306
      5          6           0        3.323271   -1.023990    0.534487
      6          6           0        2.930618   -2.323375    0.869104
      7          1           0        1.385804   -3.823956    0.734476
      8          1           0       -0.152263   -2.378264   -0.580726
      9          1           0        0.538932   -0.047101   -1.187371
     10          1           0        4.283565   -0.619413    0.830411
     11          1           0        3.604585   -2.952442    1.443637
     12          7           0        2.843734    1.138960   -0.563523
     13          8           0        3.950329    1.520204   -0.188374
     14          8           0        2.046604    1.811160   -1.214189
     15          6           0       -3.452942   -0.009363    0.394471
     16          6           0       -4.123572   -0.721867   -0.780509
     17          6           0       -4.952659   -1.930091   -0.343926
     18          1           0       -2.810852   -0.722504    0.929349
     19          1           0       -4.224365    0.312530    1.107694
     20          1           0       -3.351225   -1.041101   -1.491977
     21          1           0       -4.763992   -0.006898   -1.312767
     22          1           0       -5.743681   -1.624571    0.348565
     23          1           0       -4.322888   -2.664650    0.168335
     24          1           0       -5.423114   -2.424486   -1.199557
     25          6           0       -2.620530    1.200608   -0.025991
     26          6           0       -1.949900    1.913113    1.148989
     27          6           0       -1.120813    3.121337    0.712405
     28          1           0       -1.849107    0.878716   -0.739214
     29          1           0       -3.262621    1.913750   -0.560869
     30          1           0       -1.309480    1.198144    1.681246
     31          1           0       -2.722246    2.232346    1.860457
     32          1           0       -1.750584    3.855895    0.200144
     33          1           0       -0.329790    2.815817    0.019915
     34          1           0       -0.650357    3.615732    1.568037
 ---------------------------------------------------------------------

 SCF Done:  E(RHF) =  -669.536155880     A.U. after   15 cycles
 E2 =    -0.2092776326D+01 EUMP2 =    -0.67162893220639D+03

 The electronic state is 1-A.
 Alpha  occ. eigenvalues --  -20.60965 -20.60954 -15.85982 -11.31299 -11.27864
 Alpha  occ. eigenvalues --  -11.27860 -11.27597 -11.26874 -11.26863 -11.22061
 Alpha  occ. eigenvalues --  -11.21725 -11.21569 -11.21540 -11.21434 -11.20389
 Alpha  occ. eigenvalues --   -1.60013  -1.39571  -1.19469  -1.08872  -1.08641
 Alpha  occ. eigenvalues --   -1.04866  -1.03610  -0.96034  -0.95715  -0.87044
 Alpha  occ. eigenvalues --   -0.86265  -0.82551  -0.79703  -0.78423  -0.77601
 Alpha  occ. eigenvalues --   -0.72209  -0.71322  -0.70583  -0.65320  -0.65123
 Alpha  occ. eigenvalues --   -0.64866  -0.62212  -0.61003  -0.59461  -0.57635
 Alpha  occ. eigenvalues --   -0.55392  -0.55299  -0.53192  -0.52966  -0.52697
 Alpha  occ. eigenvalues --   -0.52435  -0.49993  -0.48965  -0.48958  -0.47987
 Alpha  occ. eigenvalues --   -0.46780  -0.45953  -0.45893  -0.44875  -0.43889
 Alpha  occ. eigenvalues --   -0.37443  -0.36459
 Alpha virt. eigenvalues --    0.04862   0.11138   0.16306   0.19083   0.23007
 Alpha virt. eigenvalues --    0.23557   0.25220   0.26764   0.27691   0.28209
 Alpha virt. eigenvalues --    0.29668   0.30441   0.31564   0.31849   0.32209

 Mulliken charges:
               1
     1  C   -0.170524
     2  C   -0.220840
     3  C   -0.174728
     4  C    0.158777
     5  C   -0.170420
     6  C   -0.218539
     7  H    0.226204
     8  H    0.224806
     9  H    0.280705
    10  H    0.275917
    11  H    0.223957
    12  N    0.488562
    13  O   -0.458187
    14  O   -0.460211
    15  C   -0.298888
    16  C   -0.299001
    17  C   -0.475126
    18  H    0.145023
    19  H    0.152401
    20  H    0.144708
    21  H    0.155805
    22  H    0.157872
    23  H    0.150785
    24  H    0.161226
    25  C   -0.298775
    26  C   -0.300410
    27  C   -0.487178
    28  H    0.142684
    29  H    0.153229
    30  H    0.149138
    31  H    0.150846
    32  H    0.153289
    33  H    0.176986
    34  H    0.159905
 Sum of Mulliken charges =  -0.00000

 Dipole moment (field-independent basis, Debye):
    X=             -1.3155    Y=             -4.7672    Z=              1.2615  Tot=              5.1037
 Quadrupole moment (field-independent basis, Debye-Ang):
   XX=            -97.3477   YY=            -93.2039   ZZ=            -94.9918
   XY=            -13.4114   XZ=              5.8873   YZ=              0.3249

 Normal termination of Gaussian 16 at Thu May  6 17:23:39 2021.
