 Gaussian 16, Revision A.03,
 Gaussian 16:  EM64L-G16RevA.03 25-Dec-2016

 -------------
 #p 6-31g* mp2
 -------------

 ------------------------------------------------------
 Input file generated by CHIRIPA (05-May-2021 14:55:23)
 ------------------------------------------------------
 Symbolic Z-matrix:
 Charge =  0 Multiplicity = 1

                         Standard orientation:
 ---------------------------------------------------------------------
 Center     Atomic      Atomic             Coordinates (Angstroms)
 Number     Number       Type             X           Y           Z
 ---------------------------------------------------------------------
      1          6           0        1.236262    0.944309    2.364907
      2          6           0        1.291781   -0.451930    2.302006
      3          6           0        1.754007   -1.092886    1.148719
      4          6           0        2.154593   -0.303113    0.072114
      5          6           0        2.111114    1.089859    0.104203
      6          6           0        1.645385    1.709398    1.267738
      7          1           0        0.875834    1.433900    3.264788
      8          1           0        0.974702   -1.048651    3.152553
      9          1           0        1.807432   -2.172162    1.073041
     10          1           0        2.434049    1.657904   -0.759774
     11          1           0        1.603363    2.793908    1.313759
     12          7           0        2.645785   -0.970328   -1.154244
     13          8           0        2.992915   -0.251913   -2.089134
     14          8           0        2.674351   -2.199071   -1.157353
     15          6           0       -2.587497   -0.513400   -0.371474
     16          6           0       -3.789338   -1.243934    0.228429
     17          6           0       -3.640952   -2.764939    0.180238
     18          1           0       -2.451865   -0.837206   -1.412482
     19          1           0       -1.678678   -0.811396    0.169491
     20          1           0       -4.695810   -0.943595   -0.312609
     21          1           0       -3.922241   -0.918208    1.268070
     22          1           0       -2.753193   -3.083205    0.736288
     23          1           0       -3.531158   -3.108736   -0.853372
     24          1           0       -4.511193   -3.267157    0.614191
     25          6           0       -2.721018    1.007858   -0.330562
     26          6           0       -1.519176    1.738392   -0.930464
     27          6           0       -1.667563    3.259396   -0.882273
     28          1           0       -3.629836    1.305854   -0.871527
     29          1           0       -2.856650    1.331663    0.710446
     30          1           0       -1.386274    1.412666   -1.970106
     31          1           0       -0.612705    1.438052   -0.389427
     32          1           0       -1.777356    3.603194    0.151336
     33          1           0       -2.555321    3.577663   -1.438324
     34          1           0       -0.797321    3.761615   -1.316227
 ---------------------------------------------------------------------

 SCF Done:  E(RHF) =  -669.534562057     A.U. after   15 cycles
 E2 =    -0.2094357265D+01 EUMP2 =    -0.67162891932185D+03

 The electronic state is 1-A.
 Alpha  occ. eigenvalues --  -20.60840 -20.60835 -15.85897 -11.31317 -11.27916
 Alpha  occ. eigenvalues --  -11.27866 -11.27643 -11.26945 -11.26884 -11.21707
 Alpha  occ. eigenvalues --  -11.21543 -11.21478 -11.21396 -11.21376 -11.21157
 Alpha  occ. eigenvalues --   -1.59914  -1.39466  -1.19519  -1.08887  -1.08513
 Alpha  occ. eigenvalues --   -1.04936  -1.03646  -0.96122  -0.95711  -0.87135
 Alpha  occ. eigenvalues --   -0.86304  -0.82542  -0.79711  -0.78329  -0.77576
 Alpha  occ. eigenvalues --   -0.72114  -0.71237  -0.70600  -0.65190  -0.65142
 Alpha  occ. eigenvalues --   -0.64903  -0.62260  -0.61087  -0.59502  -0.57733
 Alpha  occ. eigenvalues --   -0.55433  -0.55398  -0.53372  -0.52994  -0.52800
 Alpha  occ. eigenvalues --   -0.52535  -0.50060  -0.48878  -0.48865  -0.48023
 Alpha  occ. eigenvalues --   -0.46737  -0.45854  -0.45710  -0.44857  -0.43893
 Alpha  occ. eigenvalues --   -0.37493  -0.36399
 Alpha virt. eigenvalues --    0.04944   0.11075   0.16396   0.21000   0.22849
 Alpha virt. eigenvalues --    0.24022   0.26509   0.26870   0.27236   0.28069
 Alpha virt. eigenvalues --    0.28493   0.30863   0.31275   0.31461   0.31938

 Mulliken charges:
               1
     1  C   -0.170433
     2  C   -0.218402
     3  C   -0.171588
     4  C    0.163699
     5  C   -0.174846
     6  C   -0.218553
     7  H    0.226461
     8  H    0.224372
     9  H    0.276558
    10  H    0.276709
    11  H    0.225740
    12  N    0.488238
    13  O   -0.460030
    14  O   -0.460006
    15  C   -0.300818
    16  C   -0.299477
    17  C   -0.475033
    18  H    0.153214
    19  H    0.149062
    20  H    0.152668
    21  H    0.148534
    22  H    0.152381
    23  H    0.158473
    24  H    0.159810
    25  C   -0.295992
    26  C   -0.311582
    27  C   -0.475407
    28  H    0.149557
    29  H    0.144639
    30  H    0.155000
    31  H    0.163723
    32  H    0.149286
    33  H    0.157956
    34  H    0.156087
 Sum of Mulliken charges =  -0.00000

 Dipole moment (field-independent basis, Debye):
    X=             -1.5975    Y=              2.2810    Z=              4.2979  Tot=              5.1213
 Quadrupole moment (field-independent basis, Debye-Ang):
   XX=           -102.8524   YY=            -93.8373   ZZ=            -92.7917
   XY=              6.5312   XZ=              9.5147   YZ=             -3.1573

 Normal termination of Gaussian 16 at Thu May  6 07:54:14 2021.
