 Gaussian 16, Revision A.03,
 Gaussian 16:  EM64L-G16RevA.03 25-Dec-2016

 -------------
 #p 6-31g* mp2
 -------------

 ------------------------------------------------------
 Input file generated by CHIRIPA (05-May-2021 14:57:24)
 ------------------------------------------------------
 Symbolic Z-matrix:
 Charge =  0 Multiplicity = 1

                         Standard orientation:
 ---------------------------------------------------------------------
 Center     Atomic      Atomic             Coordinates (Angstroms)
 Number     Number       Type             X           Y           Z
 ---------------------------------------------------------------------
      1          6           0        4.481661   -1.977684    0.517356
      2          6           0        3.128750   -1.934906    0.869950
      3          6           0        2.342984   -0.827468    0.537232
      4          6           0        2.945340    0.224306   -0.151410
      5          6           0        4.290594    0.211294   -0.516667
      6          6           0        5.057251   -0.906336   -0.173609
      7          1           0        5.084641   -2.841927    0.779835
      8          1           0        2.679068   -2.765482    1.406582
      9          1           0        1.293236   -0.768224    0.797882
     10          1           0        4.710711    1.054493   -1.051397
     11          1           0        6.107691   -0.936819   -0.448728
     12          7           0        2.123600    1.402096   -0.509117
     13          8           0        2.678041    2.315845   -1.115990
     14          8           0        0.940639    1.389198   -0.175840
     15          6           0       -2.250334    1.926159    1.452230
     16          6           0       -2.555719    0.715181    2.082147
     17          6           0       -3.016595   -0.375425    1.338696
     18          6           0       -3.161057   -0.219325   -0.039002
     19          6           0       -2.865132    0.974237   -0.695607
     20          6           0       -2.405742    2.051601    0.067805
     21          1           0       -1.892891    2.768223    2.037514
     22          1           0       -2.435987    0.614883    3.157159
     23          1           0       -3.260372   -1.324363    1.800766
     24          1           0       -2.994598    1.043892   -1.768827
     25          1           0       -2.169347    2.990863   -0.424079
     26          7           0       -3.648179   -1.366891   -0.836625
     27          8           0       -3.766913   -1.203761   -2.049032
     28          8           0       -3.902029   -2.407753   -0.234294
 ---------------------------------------------------------------------

 SCF Done:  E(RHF) =  -868.338874991     A.U. after   16 cycles
 E2 =    -0.2599779003D+01 EUMP2 =    -0.87093865399408D+03

 The electronic state is 1-A.
 Alpha  occ. eigenvalues --  -20.61191 -20.61177 -20.60224 -20.60201 -15.86217
 Alpha  occ. eigenvalues --  -15.85258 -11.31433 -11.30368 -11.27990 -11.27973
 Alpha  occ. eigenvalues --  -11.27698 -11.26975 -11.26969 -11.26951 -11.26798
 Alpha  occ. eigenvalues --  -11.26532 -11.25959 -11.25714  -1.60266  -1.59298
 Alpha  occ. eigenvalues --   -1.39821  -1.38858  -1.19593  -1.18491  -1.09020
 Alpha  occ. eigenvalues --   -1.07926  -1.04971  -1.03859  -0.95880  -0.94815
 Alpha  occ. eigenvalues --   -0.86377  -0.85274  -0.82714  -0.81664  -0.77779
 Alpha  occ. eigenvalues --   -0.76755  -0.72462  -0.71577  -0.71484  -0.70698
 Alpha  occ. eigenvalues --   -0.70620  -0.69606  -0.65249  -0.64972  -0.64151
 Alpha  occ. eigenvalues --   -0.63871  -0.62319  -0.61235  -0.55479  -0.54359
 Alpha  occ. eigenvalues --   -0.53311  -0.53060  -0.52168  -0.51964  -0.49219
 Alpha  occ. eigenvalues --   -0.49201  -0.48253  -0.48216  -0.45265  -0.44321
 Alpha  occ. eigenvalues --   -0.37567  -0.36568  -0.36395  -0.35401
 Alpha virt. eigenvalues --    0.04711   0.05793   0.11088   0.12239   0.16241
 Alpha virt. eigenvalues --    0.17391   0.21244   0.22285   0.27154   0.28103
 Alpha virt. eigenvalues --    0.28190   0.29142   0.30797   0.31827   0.32276

 Mulliken charges:
               1
     1  C   -0.170161
     2  C   -0.218360
     3  C   -0.171262
     4  C    0.157397
     5  C   -0.170736
     6  C   -0.218573
     7  H    0.226895
     8  H    0.225185
     9  H    0.276351
    10  H    0.275426
    11  H    0.224203
    12  N    0.491316
    13  O   -0.461327
    14  O   -0.466468
    15  C   -0.163636
    16  C   -0.221655
    17  C   -0.177329
    18  C    0.156586
    19  C   -0.169991
    20  C   -0.198657
    21  H    0.224849
    22  H    0.217756
    23  H    0.269551
    24  H    0.273962
    25  H    0.227855
    26  N    0.487832
    27  O   -0.461180
    28  O   -0.465828
 Sum of Mulliken charges =  -0.00000

 Dipole moment (field-independent basis, Debye):
    X=              4.8704    Y=              0.1438    Z=              3.9745  Tot=              6.2879
 Quadrupole moment (field-independent basis, Debye-Ang):
   XX=            -97.0638   YY=           -106.6664   ZZ=           -102.2474
   XY=            -23.8497   XZ=             -7.6295   YZ=             -3.6195

 Normal termination of Gaussian 16 at Thu May  6 21:15:51 2021.
