 Gaussian 16, Revision A.03,
 Gaussian 16:  EM64L-G16RevA.03 25-Dec-2016

 -------------
 #p 6-31g* mp2
 -------------

 ------------------------------------------------------
 Input file generated by CHIRIPA (05-May-2021 14:51:10)
 ------------------------------------------------------
 Symbolic Z-matrix:
 Charge =  0 Multiplicity = 1

                         Standard orientation:
 ---------------------------------------------------------------------
 Center     Atomic      Atomic             Coordinates (Angstroms)
 Number     Number       Type             X           Y           Z
 ---------------------------------------------------------------------
      1          6           0        3.223450   -0.638776   -0.336207
      2          6           0        2.002974   -1.541822   -0.154734
      3          6           0        2.242166   -2.966621   -0.655263
      4          1           0        3.498484   -0.614060   -1.399546
      5          1           0        4.077958   -1.077302    0.197557
      6          1           0        1.150667   -1.101010   -0.687532
      7          1           0        1.730697   -1.564238    0.908271
      8          1           0        3.075176   -3.429504   -0.116343
      9          1           0        2.491851   -2.963644   -1.721213
     10          1           0        1.356963   -3.594998   -0.515921
     11          6           0        2.999835    0.788819    0.159472
     12          6           0        4.220310    1.691866   -0.022001
     13          6           0        3.981119    3.116665    0.478528
     14          1           0        2.145326    1.227346   -0.374292
     15          1           0        2.724800    0.764104    1.222811
     16          1           0        4.492588    1.714282   -1.085005
     17          1           0        5.072618    1.251054    0.510797
     18          1           0        3.731433    3.113688    1.544478
     19          1           0        3.148108    3.579548   -0.060391
     20          1           0        4.866322    3.745042    0.339186
     21          6           0       -3.426054    0.572129    0.344831
     22          6           0       -3.915701    1.493031   -0.773278
     23          6           0       -4.542213    2.783595   -0.244391
     24          1           0       -4.268999    0.328140    1.005784
     25          1           0       -2.692565    1.111640    0.959905
     26          1           0       -4.647020    0.951483   -1.386887
     27          1           0       -3.071533    1.734700   -1.431755
     28          1           0       -3.817193    3.348000    0.350920
     29          1           0       -5.401631    2.560334    0.396043
     30          1           0       -4.885355    3.427094   -1.060492
     31          6           0       -2.797230   -0.722172   -0.168097
     32          6           0       -2.307583   -1.643075    0.950013
     33          6           0       -1.681072   -2.933639    0.421124
     34          1           0       -3.530720   -1.261684   -0.783170
     35          1           0       -1.954285   -0.478185   -0.829049
     36          1           0       -3.151752   -1.884744    1.608490
     37          1           0       -1.576265   -1.101528    1.563622
     38          1           0       -0.821653   -2.710377   -0.219308
     39          1           0       -2.406092   -3.498044   -0.174185
     40          1           0       -1.337930   -3.577139    1.237227
 ---------------------------------------------------------------------

 SCF Done:  E(RHF) =  -470.732815274     A.U. after   11 cycles
 E2 =    -0.1583458015D+01 EUMP2 =    -0.47231627328841D+03

 The electronic state is 1-A.
 Alpha  occ. eigenvalues --  -11.21657 -11.21638 -11.21598 -11.21561 -11.21451
 Alpha  occ. eigenvalues --  -11.21393 -11.21392 -11.21333 -11.21104 -11.21067
 Alpha  occ. eigenvalues --  -11.21049 -11.20982  -1.08482  -1.08405  -1.03604
 Alpha  occ. eigenvalues --   -1.03474  -0.96063  -0.95910  -0.87060  -0.86945
 Alpha  occ. eigenvalues --   -0.79639  -0.79571  -0.78304  -0.78217  -0.65128
 Alpha  occ. eigenvalues --   -0.65028  -0.61046  -0.60910  -0.59382  -0.59323
 Alpha  occ. eigenvalues --   -0.57758  -0.57487  -0.55306  -0.55174  -0.52807
 Alpha  occ. eigenvalues --   -0.52612  -0.52508  -0.52244  -0.49950  -0.49844
 Alpha  occ. eigenvalues --   -0.47951  -0.47881  -0.46736  -0.46532  -0.45893
 Alpha  occ. eigenvalues --   -0.45799  -0.45719  -0.45591  -0.43847  -0.43737
 Alpha virt. eigenvalues --    0.20854   0.23190   0.23484   0.25032   0.25593
 Alpha virt. eigenvalues --    0.26464   0.26789   0.27647   0.28383   0.29165
 Alpha virt. eigenvalues --    0.30586   0.30868   0.31140   0.31767   0.32298

 Mulliken charges:
               1
     1  C   -0.298099
     2  C   -0.302261
     3  C   -0.480953
     4  H    0.149859
     5  H    0.149924
     6  H    0.151703
     7  H    0.153410
     8  H    0.155554
     9  H    0.154974
    10  H    0.165707
    11  C   -0.298279
    12  C   -0.299687
    13  C   -0.475736
    14  H    0.149015
    15  H    0.149552
    16  H    0.152070
    17  H    0.152115
    18  H    0.155193
    19  H    0.155094
    20  H    0.160446
    21  C   -0.298363
    22  C   -0.299569
    23  C   -0.475718
    24  H    0.149685
    25  H    0.149822
    26  H    0.151902
    27  H    0.151594
    28  H    0.155259
    29  H    0.155208
    30  H    0.160181
    31  C   -0.299442
    32  C   -0.299311
    33  C   -0.483764
    34  H    0.149486
    35  H    0.149786
    36  H    0.151591
    37  H    0.152666
    38  H    0.165603
    39  H    0.154460
    40  H    0.159327
 Sum of Mulliken charges =  -0.00000

 Dipole moment (field-independent basis, Debye):
    X=              0.0283    Y=             -0.0072    Z=              0.0033  Tot=              0.0293
 Quadrupole moment (field-independent basis, Debye-Ang):
   XX=            -84.0876   YY=            -86.6075   ZZ=            -84.0819
   XY=              0.7659   XZ=              0.4318   YZ=             -0.8079

 Normal termination of Gaussian 16 at Wed May  5 18:11:52 2021.
