 Gaussian 16, Revision A.03,
 Gaussian 16:  EM64L-G16RevA.03 25-Dec-2016

 -------------
 #p 6-31g* mp2
 -------------

 ------------------------------------------------------
 Input file generated by CHIRIPA (05-May-2021 14:53:14)
 ------------------------------------------------------
 Symbolic Z-matrix:
 Charge =  0 Multiplicity = 1

                         Standard orientation:
 ---------------------------------------------------------------------
 Center     Atomic      Atomic             Coordinates (Angstroms)
 Number     Number       Type             X           Y           Z
 ---------------------------------------------------------------------
      1          6           0       -2.026632    0.996925    0.268507
      2          6           0       -2.559300    2.362661    0.703263
      3          6           0       -1.445624    3.333669    1.096535
      4          1           0       -1.433135    0.564813    1.085810
      5          1           0       -1.340200    1.131658   -0.578873
      6          1           0       -3.245594    2.225255    1.548683
      7          1           0       -3.151757    2.791487   -0.115100
      8          1           0       -0.764891    3.500188    0.255420
      9          1           0       -0.859261    2.930738    1.928657
     10          1           0       -1.848723    4.303663    1.403916
     11          6           0       -3.128009    0.015236   -0.127707
     12          6           0       -2.595341   -1.350501   -0.562463
     13          6           0       -3.709017   -2.321508   -0.955735
     14          1           0       -3.814441   -0.119498    0.719673
     15          1           0       -3.721506    0.447348   -0.945011
     16          1           0       -2.002883   -1.779327    0.255900
     17          1           0       -1.909046   -1.213094   -1.407883
     18          1           0       -4.295380   -1.918578   -1.787857
     19          1           0       -4.389750   -2.488027   -0.114620
     20          1           0       -3.305918   -3.291502   -1.263117
     21          6           0        1.434954   -1.999698    1.804387
     22          6           0        0.826094   -2.130815    0.551942
     23          6           0        1.139052   -1.247593   -0.485616
     24          6           0        2.069466   -0.240275   -0.234758
     25          6           0        2.693059   -0.083737    1.002140
     26          6           0        2.364853   -0.978378    2.025100
     27          1           0        1.185919   -2.690241    2.604717
     28          1           0        0.103559   -2.923037    0.377670
     29          1           0        0.682667   -1.326243   -1.464874
     30          1           0        3.409486    0.715977    1.145694
     31          1           0        2.839272   -0.874156    2.996753
     32          7           0        2.408851    0.700797   -1.325447
     33          8           0        3.231783    1.579813   -1.078971
     34          8           0        1.845502    0.541573   -2.406153
 ---------------------------------------------------------------------

 SCF Done:  E(RHF) =  -669.534243303     A.U. after   15 cycles
 E2 =    -0.2094537608D+01 EUMP2 =    -0.67162878091119D+03

 The electronic state is 1-A.
 Alpha  occ. eigenvalues --  -20.60795 -20.60790 -15.85841 -11.31164 -11.27736
 Alpha  occ. eigenvalues --  -11.27714 -11.27490 -11.26759 -11.26712 -11.22112
 Alpha  occ. eigenvalues --  -11.21638 -11.21575 -11.21559 -11.21397 -11.20951
 Alpha  occ. eigenvalues --   -1.59865  -1.39420  -1.19348  -1.08757  -1.08633
 Alpha  occ. eigenvalues --   -1.04754  -1.03745  -0.96167  -0.95590  -0.87189
 Alpha  occ. eigenvalues --   -0.86153  -0.82443  -0.79883  -0.78458  -0.77427
 Alpha  occ. eigenvalues --   -0.72061  -0.71183  -0.70465  -0.65342  -0.65002
 Alpha  occ. eigenvalues --   -0.64707  -0.62132  -0.61135  -0.59564  -0.57788
 Alpha  occ. eigenvalues --   -0.55436  -0.55259  -0.53199  -0.52873  -0.52810
 Alpha  occ. eigenvalues --   -0.52585  -0.50095  -0.48820  -0.48818  -0.48153
 Alpha  occ. eigenvalues --   -0.46878  -0.45942  -0.45848  -0.44817  -0.43978
 Alpha  occ. eigenvalues --   -0.37322  -0.36239
 Alpha virt. eigenvalues --    0.05051   0.11158   0.16479   0.20494   0.22901
 Alpha virt. eigenvalues --    0.24019   0.25236   0.26323   0.27455   0.28247
 Alpha virt. eigenvalues --    0.29150   0.30112   0.31265   0.31729   0.32142

 Mulliken charges:
               1
     1  C   -0.302925
     2  C   -0.299715
     3  C   -0.476873
     4  H    0.150050
     5  H    0.154700
     6  H    0.149753
     7  H    0.153617
     8  H    0.161403
     9  H    0.152388
    10  H    0.160454
    11  C   -0.297088
    12  C   -0.305818
    13  C   -0.475445
    14  H    0.148810
    15  H    0.152729
    16  H    0.147894
    17  H    0.150713
    18  H    0.159628
    19  H    0.155987
    20  H    0.156024
    21  C   -0.173174
    22  C   -0.217896
    23  C   -0.166988
    24  C    0.159107
    25  C   -0.170946
    26  C   -0.218799
    27  H    0.225343
    28  H    0.225391
    29  H    0.276517
    30  H    0.275511
    31  H    0.223255
    32  N    0.487926
    33  O   -0.460043
    34  O   -0.461489
 Sum of Mulliken charges =  -0.00000

 Dipole moment (field-independent basis, Debye):
    X=             -1.2003    Y=             -3.2261    Z=              3.8051  Tot=              5.1310
 Quadrupole moment (field-independent basis, Debye-Ang):
   XX=            -98.6404   YY=            -93.1637   ZZ=            -94.4036
   XY=             -5.5457   XZ=             10.4263   YZ=              0.7615

 Normal termination of Gaussian 16 at Thu May  6 08:57:22 2021.
