 Gaussian 16, Revision A.03,
 Gaussian 16:  EM64L-G16RevA.03 25-Dec-2016

 -------------
 #p 6-31g* mp2
 -------------

 ------------------------------------------------------
 Input file generated by CHIRIPA (05-May-2021 14:53:15)
 ------------------------------------------------------
 Symbolic Z-matrix:
 Charge =  0 Multiplicity = 1

                         Standard orientation:
 ---------------------------------------------------------------------
 Center     Atomic      Atomic             Coordinates (Angstroms)
 Number     Number       Type             X           Y           Z
 ---------------------------------------------------------------------
      1          6           0        2.706038    0.858187   -0.021826
      2          6           0        2.579770    2.381668   -0.054219
      3          6           0        1.126338    2.853390   -0.107216
      4          1           0        2.214455    0.436926   -0.909424
      5          1           0        2.161733    0.470585    0.850465
      6          1           0        3.125311    2.766393   -0.925418
      7          1           0        3.071877    2.799363    0.833461
      8          1           0        0.573626    2.497432    0.768229
      9          1           0        0.627363    2.464275   -1.000644
     10          1           0        1.059301    3.945571   -0.129726
     11          6           0        4.153024    0.371218    0.031261
     12          6           0        4.279292   -1.152262    0.063655
     13          6           0        5.732724   -1.623985    0.116652
     14          1           0        4.697329    0.758821   -0.841030
     15          1           0        4.644607    0.792480    0.918859
     16          1           0        3.787185   -1.569957   -0.824026
     17          1           0        3.733751   -1.536987    0.934854
     18          1           0        6.231699   -1.234869    1.010080
     19          1           0        6.285436   -1.268027   -0.758793
     20          1           0        5.799761   -2.716166    0.139161
     21          6           0       -4.624391    1.122697    0.111347
     22          6           0       -4.854947   -0.256536    0.078435
     23          6           0       -3.784845   -1.153958    0.014689
     24          6           0       -2.491279   -0.635203   -0.014806
     25          6           0       -2.229192    0.733596    0.016701
     26          6           0       -3.314559    1.612497    0.080428
     27          1           0       -5.461600    1.812642    0.160860
     28          1           0       -5.871121   -0.639765    0.102325
     29          1           0       -3.934765   -2.226447   -0.011922
     30          1           0       -1.205059    1.085645   -0.008390
     31          1           0       -3.132510    2.683130    0.105869
     32          7           0       -1.350330   -1.575459   -0.082283
     33          8           0       -0.220120   -1.093130   -0.107190
     34          8           0       -1.607869   -2.776957   -0.108985
 ---------------------------------------------------------------------

 SCF Done:  E(RHF) =  -669.535204167     A.U. after   15 cycles
 E2 =    -0.2092910296D+01 EUMP2 =    -0.67162811446285D+03

 The electronic state is 1-A.
 Alpha  occ. eigenvalues --  -20.60797 -20.60784 -15.85827 -11.31128 -11.27721
 Alpha  occ. eigenvalues --  -11.27607 -11.27459 -11.26729 -11.26693 -11.21355
 Alpha  occ. eigenvalues --  -11.21278 -11.20619 -11.20557 -11.20390 -11.20295
 Alpha  occ. eigenvalues --   -1.59864  -1.39420  -1.19310  -1.08724  -1.07716
 Alpha  occ. eigenvalues --   -1.04704  -1.03009  -0.95567  -0.95489  -0.86562
 Alpha  occ. eigenvalues --   -0.86091  -0.82398  -0.79091  -0.77629  -0.77207
 Alpha  occ. eigenvalues --   -0.72041  -0.71183  -0.70432  -0.64964  -0.64721
 Alpha  occ. eigenvalues --   -0.64356  -0.62089  -0.60423  -0.58878  -0.57058
 Alpha  occ. eigenvalues --   -0.55219  -0.54794  -0.53042  -0.52887  -0.52237
 Alpha  occ. eigenvalues --   -0.51818  -0.49485  -0.48817  -0.48809  -0.47333
 Alpha  occ. eigenvalues --   -0.46052  -0.45024  -0.44938  -0.44662  -0.43169
 Alpha  occ. eigenvalues --   -0.37303  -0.36305
 Alpha virt. eigenvalues --    0.05038   0.11316   0.16536   0.21032   0.23510
 Alpha virt. eigenvalues --    0.24465   0.26534   0.27410   0.27791   0.28617
 Alpha virt. eigenvalues --    0.29791   0.31189   0.31480   0.31960   0.32270

 Mulliken charges:
               1
     1  C   -0.299209
     2  C   -0.298593
     3  C   -0.483734
     4  H    0.161270
     5  H    0.158723
     6  H    0.150977
     7  H    0.150497
     8  H    0.151253
     9  H    0.154633
    10  H    0.159170
    11  C   -0.299312
    12  C   -0.298487
    13  C   -0.475722
    14  H    0.145234
    15  H    0.145054
    16  H    0.157830
    17  H    0.156851
    18  H    0.152036
    19  H    0.152227
    20  H    0.160019
    21  C   -0.170389
    22  C   -0.219331
    23  C   -0.169895
    24  C    0.156128
    25  C   -0.181290
    26  C   -0.223657
    27  H    0.225378
    28  H    0.223159
    29  H    0.275233
    30  H    0.292972
    31  H    0.224213
    32  N    0.491622
    33  O   -0.464631
    34  O   -0.460230
 Sum of Mulliken charges =  -0.00000

 Dipole moment (field-independent basis, Debye):
    X=             -4.0494    Y=              3.1591    Z=              0.2169  Tot=              5.1405
 Quadrupole moment (field-independent basis, Debye-Ang):
   XX=            -74.9653   YY=            -96.9378   ZZ=            -94.6482
   XY=             -2.7682   XZ=             -0.6779   YZ=             -0.1611

 Normal termination of Gaussian 16 at Thu May  6 18:50:49 2021.
