 Gaussian 16, Revision A.03,
 Gaussian 16:  EM64L-G16RevA.03 25-Dec-2016

 -------------
 #p 6-31g* mp2
 -------------

 ------------------------------------------------------
 Input file generated by CHIRIPA (05-May-2021 14:53:18)
 ------------------------------------------------------
 Symbolic Z-matrix:
 Charge =  0 Multiplicity = 1

                         Standard orientation:
 ---------------------------------------------------------------------
 Center     Atomic      Atomic             Coordinates (Angstroms)
 Number     Number       Type             X           Y           Z
 ---------------------------------------------------------------------
      1          6           0        5.649543    0.332270   -0.105488
      2          6           0        6.363345   -1.019731   -0.081719
      3          6           0        7.845628   -0.912024   -0.440928
      4          1           0        5.754841    0.777820   -1.104159
      5          1           0        6.149013    1.015127    0.595676
      6          1           0        5.861827   -1.700264   -0.781696
      7          1           0        6.256172   -1.462201    0.916955
      8          1           0        8.365842   -0.254532    0.263120
      9          1           0        7.969256   -0.493947   -1.445184
     10          1           0        8.336410   -1.890010   -0.417801
     11          6           0        4.166991    0.240962    0.251485
     12          6           0        3.453188    1.592962    0.227716
     13          6           0        1.970905    1.485255    0.586925
     14          1           0        3.667520   -0.441895   -0.449678
     15          1           0        4.061692   -0.204588    1.250156
     16          1           0        3.560361    2.035433   -0.770958
     17          1           0        3.954706    2.273496    0.927694
     18          1           0        1.847277    1.067179    1.591181
     19          1           0        1.450691    0.827763   -0.117122
     20          1           0        1.480123    2.463242    0.563798
     21          6           0       -6.287019    0.365028   -0.125023
     22          6           0       -5.323504    1.351087   -0.361342
     23          6           0       -3.961841    1.036151   -0.326198
     24          6           0       -3.597491   -0.280856   -0.050457
     25          6           0       -4.533679   -1.285541    0.189227
     26          6           0       -5.889732   -0.947825    0.149025
     27          1           0       -7.342613    0.618527   -0.154288
     28          1           0       -5.629132    2.371496   -0.574421
     29          1           0       -3.194932    1.779892   -0.505414
     30          1           0       -4.198338   -2.293985    0.399003
     31          1           0       -6.635810   -1.715669    0.332946
     32          7           0       -2.158929   -0.626323   -0.010574
     33          8           0       -1.863835   -1.793995    0.234576
     34          8           0       -1.353715    0.277114   -0.225218
 ---------------------------------------------------------------------

 SCF Done:  E(RHF) =  -669.535861821     A.U. after   15 cycles
 E2 =    -0.2090747276D+01 EUMP2 =    -0.67162660909723D+03

 The electronic state is 1-A.
 Alpha  occ. eigenvalues --  -20.60897 -20.60880 -15.85925 -11.31264 -11.27829
 Alpha  occ. eigenvalues --  -11.27825 -11.27570 -11.26841 -11.26831 -11.20891
 Alpha  occ. eigenvalues --  -11.20558 -11.20493 -11.20402 -11.20304 -11.19362
 Alpha  occ. eigenvalues --   -1.59954  -1.39509  -1.19434  -1.08836  -1.07477
 Alpha  occ. eigenvalues --   -1.04833  -1.02513  -0.95677  -0.94930  -0.86233
 Alpha  occ. eigenvalues --   -0.85937  -0.82507  -0.78599  -0.77557  -0.77253
 Alpha  occ. eigenvalues --   -0.72146  -0.71269  -0.70542  -0.65089  -0.64836
 Alpha  occ. eigenvalues --   -0.64117  -0.62179  -0.59912  -0.58373  -0.56547
 Alpha  occ. eigenvalues --   -0.55338  -0.54212  -0.53164  -0.52925  -0.51635
 Alpha  occ. eigenvalues --   -0.51350  -0.49094  -0.48901  -0.48666  -0.46865
 Alpha  occ. eigenvalues --   -0.45635  -0.44928  -0.44779  -0.44688  -0.42779
 Alpha  occ. eigenvalues --   -0.37415  -0.36435
 Alpha virt. eigenvalues --    0.04973   0.11220   0.16468   0.21352   0.23761
 Alpha virt. eigenvalues --    0.25360   0.27269   0.27587   0.28199   0.28422
 Alpha virt. eigenvalues --    0.29140   0.30923   0.32368   0.32514   0.32698

 Mulliken charges:
               1
     1  C   -0.297444
     2  C   -0.299076
     3  C   -0.475172
     4  H    0.147763
     5  H    0.147090
     6  H    0.152373
     7  H    0.151428
     8  H    0.153843
     9  H    0.154076
    10  H    0.158491
    11  C   -0.297645
    12  C   -0.300416
    13  C   -0.476955
    14  H    0.152856
    15  H    0.148989
    16  H    0.147590
    17  H    0.145537
    18  H    0.151325
    19  H    0.179982
    20  H    0.151781
    21  C   -0.170659
    22  C   -0.218560
    23  C   -0.170896
    24  C    0.157739
    25  C   -0.170597
    26  C   -0.218608
    27  H    0.225859
    28  H    0.223727
    29  H    0.275981
    30  H    0.275789
    31  H    0.223683
    32  N    0.490788
    33  O   -0.459683
    34  O   -0.460977
 Sum of Mulliken charges =  -0.00000

 Dipole moment (field-independent basis, Debye):
    X=             -5.4196    Y=              1.1181    Z=             -0.1842  Tot=              5.5368
 Quadrupole moment (field-independent basis, Debye-Ang):
   XX=            -61.1501   YY=            -91.3368   ZZ=            -94.5883
   XY=             -1.9779   XZ=              0.8807   YZ=             -1.2000

 Normal termination of Gaussian 16 at Thu May  6 04:26:32 2021.
