 Gaussian 16, Revision A.03,
 Gaussian 16:  EM64L-G16RevA.03 25-Dec-2016

 -------------
 #p 6-31g* mp2
 -------------

 ------------------------------------------------------
 Input file generated by CHIRIPA (05-May-2021 14:53:15)
 ------------------------------------------------------
 Symbolic Z-matrix:
 Charge =  0 Multiplicity = 1

                         Standard orientation:
 ---------------------------------------------------------------------
 Center     Atomic      Atomic             Coordinates (Angstroms)
 Number     Number       Type             X           Y           Z
 ---------------------------------------------------------------------
      1          6           0        2.927680    0.167930    0.011085
      2          6           0        2.429266   -1.258350   -0.224061
      3          6           0        3.562097   -2.285084   -0.241527
      4          1           0        3.650703    0.430858   -0.773167
      5          1           0        3.472912    0.205882    0.964330
      6          1           0        1.883947   -1.293293   -1.175913
      7          1           0        1.707202   -1.517845    0.560733
      8          1           0        4.101759   -2.279544    0.711014
      9          1           0        4.279508   -2.053716   -1.035499
     10          1           0        3.183412   -3.297867   -0.411022
     11          6           0        1.806853    1.205749    0.031206
     12          6           0        2.305267    2.632029    0.266353
     13          6           0        1.172436    3.658764    0.283819
     14          1           0        1.261621    1.167798   -0.922039
     15          1           0        1.083830    0.942821    0.815459
     16          1           0        3.027331    2.891524   -0.518441
     17          1           0        2.850586    2.666972    1.218204
     18          1           0        0.455025    3.427396    1.077791
     19          1           0        0.632774    3.653223   -0.668722
     20          1           0        1.551121    4.671547    0.453314
     21          6           0       -0.901702   -2.837968    0.397502
     22          6           0       -0.970397   -2.333180   -0.905183
     23          6           0       -1.493593   -1.059346   -1.146357
     24          6           0       -1.941050   -0.314105   -0.056546
     25          6           0       -1.885924   -0.789294    1.252822
     26          6           0       -1.358879   -2.065776    1.470456
     27          1           0       -0.493777   -3.828541    0.575709
     28          1           0       -0.616092   -2.930644   -1.740377
     29          1           0       -1.558524   -0.644073   -2.144731
     30          1           0       -2.246947   -0.170211    2.065113
     31          1           0       -1.306761   -2.455235    2.483200
     32          7           0       -2.496970    1.035848   -0.299406
     33          8           0       -2.884566    1.672566    0.677834
     34          8           0       -2.534580    1.431660   -1.462400
 ---------------------------------------------------------------------

 SCF Done:  E(RHF) =  -669.534328837     A.U. after   15 cycles
 E2 =    -0.2095668522D+01 EUMP2 =    -0.67162999735909D+03

 The electronic state is 1-A.
 Alpha  occ. eigenvalues --  -20.60821 -20.60816 -15.85868 -11.31248 -11.27822
 Alpha  occ. eigenvalues --  -11.27782 -11.27520 -11.26848 -11.26792 -11.21685
 Alpha  occ. eigenvalues --  -11.21440 -11.21401 -11.21302 -11.21221 -11.20462
 Alpha  occ. eigenvalues --   -1.59886  -1.39442  -1.19420  -1.08817  -1.08371
 Alpha  occ. eigenvalues --   -1.04827  -1.03447  -0.95898  -0.95641  -0.86903
 Alpha  occ. eigenvalues --   -0.86222  -0.82479  -0.79534  -0.78185  -0.77522
 Alpha  occ. eigenvalues --   -0.72088  -0.71196  -0.70524  -0.65073  -0.65024
 Alpha  occ. eigenvalues --   -0.64826  -0.62174  -0.60849  -0.59356  -0.57504
 Alpha  occ. eigenvalues --   -0.55321  -0.55172  -0.53309  -0.52918  -0.52528
 Alpha  occ. eigenvalues --   -0.52316  -0.49825  -0.48848  -0.48843  -0.47810
 Alpha  occ. eigenvalues --   -0.46581  -0.45675  -0.45580  -0.44819  -0.43704
 Alpha  occ. eigenvalues --   -0.37285  -0.36355
 Alpha virt. eigenvalues --    0.04979   0.11110   0.16413   0.20960   0.22997
 Alpha virt. eigenvalues --    0.24266   0.26267   0.27008   0.27520   0.28003
 Alpha virt. eigenvalues --    0.28592   0.30586   0.31430   0.31703   0.32380

 Mulliken charges:
               1
     1  C   -0.297818
     2  C   -0.301662
     3  C   -0.475128
     4  H    0.149290
     5  H    0.148243
     6  H    0.147431
     7  H    0.155388
     8  H    0.155551
     9  H    0.156606
    10  H    0.151640
    11  C   -0.300811
    12  C   -0.299636
    13  C   -0.478707
    14  H    0.150128
    15  H    0.148664
    16  H    0.150726
    17  H    0.149608
    18  H    0.159770
    19  H    0.162631
    20  H    0.158974
    21  C   -0.171166
    22  C   -0.211591
    23  C   -0.171585
    24  C    0.163673
    25  C   -0.172885
    26  C   -0.218914
    27  H    0.226022
    28  H    0.223583
    29  H    0.275213
    30  H    0.275641
    31  H    0.223771
    32  N    0.488459
    33  O   -0.460394
    34  O   -0.460715
 Sum of Mulliken charges =  -0.00000

 Dipole moment (field-independent basis, Debye):
    X=              1.7843    Y=             -4.6930    Z=              0.8446  Tot=              5.0913
 Quadrupole moment (field-independent basis, Debye-Ang):
   XX=           -104.0564   YY=            -92.9800   ZZ=            -89.0558
   XY=              9.3375   XZ=             -2.7818   YZ=              0.3566

 Normal termination of Gaussian 16 at Thu May  6 01:05:49 2021.
