 Gaussian 16, Revision A.03,
 Gaussian 16:  EM64L-G16RevA.03 25-Dec-2016

 -------------
 #p 6-31g* mp2
 -------------

 ------------------------------------------------------
 Input file generated by CHIRIPA (05-May-2021 14:53:11)
 ------------------------------------------------------
 Symbolic Z-matrix:
 Charge =  0 Multiplicity = 1

                         Standard orientation:
 ---------------------------------------------------------------------
 Center     Atomic      Atomic             Coordinates (Angstroms)
 Number     Number       Type             X           Y           Z
 ---------------------------------------------------------------------
      1          6           0       -3.162178    0.659778    0.136774
      2          6           0       -3.319011    2.052623   -0.474267
      3          6           0       -2.483668    3.111573    0.245887
      4          1           0       -3.449119    0.696851    1.196602
      5          1           0       -2.101933    0.372460    0.109872
      6          1           0       -4.378835    2.336653   -0.447480
      7          1           0       -3.031847    2.012188   -1.532812
      8          1           0       -1.420068    2.854896    0.207501
      9          1           0       -2.774710    3.181205    1.299000
     10          1           0       -2.610778    4.099679   -0.207267
     11          6           0       -3.991134   -0.409690   -0.572308
     12          6           0       -3.834301   -1.802534    0.038733
     13          6           0       -4.669644   -2.861484   -0.681420
     14          1           0       -5.051379   -0.122372   -0.545406
     15          1           0       -3.704193   -0.446762   -1.632136
     16          1           0       -4.121465   -1.762100    1.097278
     17          1           0       -2.774477   -2.086565    0.011946
     18          1           0       -4.378602   -2.931116   -1.734534
     19          1           0       -5.733244   -2.604807   -0.643035
     20          1           0       -4.542534   -3.849591   -0.228267
     21          6           0        4.612313   -0.241040   -1.573448
     22          6           0        4.750826   -0.922884   -0.360014
     23          6           0        3.749841   -0.850607    0.613308
     24          6           0        2.618500   -0.083832    0.338693
     25          6           0        2.451279    0.606923   -0.860550
     26          6           0        3.465005    0.520346   -1.819410
     27          1           0        5.394850   -0.302741   -2.323931
     28          1           0        5.640754   -1.514943   -0.166263
     29          1           0        3.831293   -1.368393    1.561296
     30          1           0        1.552704    1.189138   -1.024885
     31          1           0        3.354732    1.050931   -2.760879
     32          7           0        1.552059    0.000254    1.361451
     33          8           0        0.565014    0.682520    1.095195
     34          8           0        1.723421   -0.617698    2.409977
 ---------------------------------------------------------------------

 SCF Done:  E(RHF) =  -669.536067603     A.U. after   15 cycles
 E2 =    -0.2091546133D+01 EUMP2 =    -0.67162761373543D+03

 The electronic state is 1-A.
 Alpha  occ. eigenvalues --  -20.61011 -20.60995 -15.86035 -11.31339 -11.27906
 Alpha  occ. eigenvalues --  -11.27895 -11.27633 -11.26904 -11.26894 -11.20829
 Alpha  occ. eigenvalues --  -11.20681 -11.20537 -11.20494 -11.20122 -11.20010
 Alpha  occ. eigenvalues --   -1.60062  -1.39620  -1.19506  -1.08913  -1.07492
 Alpha  occ. eigenvalues --   -1.04901  -1.02666  -0.95758  -0.95101  -0.86302
 Alpha  occ. eigenvalues --   -0.86117  -0.82597  -0.78739  -0.77668  -0.77232
 Alpha  occ. eigenvalues --   -0.72259  -0.71373  -0.70616  -0.65167  -0.64903
 Alpha  occ. eigenvalues --   -0.64128  -0.62250  -0.60076  -0.58479  -0.56703
 Alpha  occ. eigenvalues --   -0.55404  -0.54391  -0.53233  -0.52992  -0.51849
 Alpha  occ. eigenvalues --   -0.51506  -0.49082  -0.49018  -0.48975  -0.47039
 Alpha  occ. eigenvalues --   -0.45779  -0.45175  -0.44818  -0.44502  -0.42892
 Alpha  occ. eigenvalues --   -0.37482  -0.36501
 Alpha virt. eigenvalues --    0.04845   0.11153   0.16321   0.21021   0.23599
 Alpha virt. eigenvalues --    0.24744   0.26774   0.27438   0.27930   0.28825
 Alpha virt. eigenvalues --    0.29021   0.30669   0.31674   0.32453   0.32595

 Mulliken charges:
               1
     1  C   -0.305470
     2  C   -0.298515
     3  C   -0.478297
     4  H    0.150832
     5  H    0.170112
     6  H    0.147501
     7  H    0.143962
     8  H    0.166811
     9  H    0.156740
    10  H    0.151787
    11  C   -0.297665
    12  C   -0.298438
    13  C   -0.475109
    14  H    0.145983
    15  H    0.144011
    16  H    0.153574
    17  H    0.153023
    18  H    0.152143
    19  H    0.153745
    20  H    0.158581
    21  C   -0.170535
    22  C   -0.218520
    23  C   -0.170713
    24  C    0.157680
    25  C   -0.170692
    26  C   -0.218530
    27  H    0.226209
    28  H    0.224016
    29  H    0.275997
    30  H    0.275290
    31  H    0.224106
    32  N    0.493881
    33  O   -0.465506
    34  O   -0.457994
 Sum of Mulliken charges =  -0.00000

 Dipole moment (field-independent basis, Debye):
    X=              4.0939    Y=             -0.3459    Z=             -3.4344  Tot=              5.3549
 Quadrupole moment (field-independent basis, Debye-Ang):
   XX=            -74.7589   YY=            -94.9129   ZZ=            -95.6194
   XY=             -3.5238   XZ=             -7.8208   YZ=             -2.0847

 Normal termination of Gaussian 16 at Wed May  5 18:29:50 2021.
