 Gaussian 16, Revision A.03,
 Gaussian 16:  EM64L-G16RevA.03 25-Dec-2016

 -------------
 #p 6-31g* mp2
 -------------

 ------------------------------------------------------
 Input file generated by CHIRIPA (05-May-2021 14:53:14)
 ------------------------------------------------------
 Symbolic Z-matrix:
 Charge =  0 Multiplicity = 1

                         Standard orientation:
 ---------------------------------------------------------------------
 Center     Atomic      Atomic             Coordinates (Angstroms)
 Number     Number       Type             X           Y           Z
 ---------------------------------------------------------------------
      1          6           0        2.666964    0.933363   -0.010059
      2          6           0        1.837560    1.926051   -0.825317
      3          6           0        2.088484    3.378901   -0.420279
      4          1           0        2.437903    1.062940    1.056565
      5          1           0        3.733060    1.170030   -0.131804
      6          1           0        0.773408    1.686725   -0.703174
      7          1           0        2.068481    1.793964   -1.890139
      8          1           0        3.142373    3.640975   -0.558980
      9          1           0        1.839942    3.533127    0.634729
     10          1           0        1.485456    4.071538   -1.015653
     11          6           0        2.427108   -0.523179   -0.403355
     12          6           0        3.256511   -1.515867    0.411903
     13          6           0        3.005587   -2.968718    0.006865
     14          1           0        1.361011   -0.759847   -0.281610
     15          1           0        2.656169   -0.652757   -1.469979
     16          1           0        3.025591   -1.383781    1.476725
     17          1           0        4.320663   -1.276542    0.289760
     18          1           0        3.254130   -3.122943   -1.048143
     19          1           0        1.951699   -3.230791    0.145566
     20          1           0        3.608616   -3.661355    0.602239
     21          6           0       -1.918124    2.317380    0.632909
     22          6           0       -2.779370    1.816255   -0.348747
     23          6           0       -2.827461    0.445295   -0.618386
     24          6           0       -1.996808   -0.399753    0.115915
     25          6           0       -1.128106    0.069084    1.100211
     26          6           0       -1.096689    1.443735    1.352986
     27          1           0       -1.887242    3.383808    0.835821
     28          1           0       -3.418439    2.492392   -0.909529
     29          1           0       -3.484837    0.030478   -1.372839
     30          1           0       -0.502977   -0.629661    1.642785
     31          1           0       -0.426852    1.830099    2.115932
     32          7           0       -2.038894   -1.853082   -0.160613
     33          8           0       -1.297019   -2.576685    0.500187
     34          8           0       -2.812960   -2.241077   -1.032919
 ---------------------------------------------------------------------

 SCF Done:  E(RHF) =  -669.534544988     A.U. after   15 cycles
 E2 =    -0.2096122733D+01 EUMP2 =    -0.67163066772128D+03

 The electronic state is 1-A.
 Alpha  occ. eigenvalues --  -20.60991 -20.60986 -15.86021 -11.31376 -11.27932
 Alpha  occ. eigenvalues --  -11.27912 -11.27646 -11.26943 -11.26912 -11.21662
 Alpha  occ. eigenvalues --  -11.21560 -11.21533 -11.21400 -11.21260 -11.20470
 Alpha  occ. eigenvalues --   -1.60045  -1.39601  -1.19558  -1.08946  -1.08454
 Alpha  occ. eigenvalues --   -1.04952  -1.03495  -0.95971  -0.95766  -0.86972
 Alpha  occ. eigenvalues --   -0.86339  -0.82605  -0.79581  -0.78251  -0.77658
 Alpha  occ. eigenvalues --   -0.72239  -0.71360  -0.70640  -0.65195  -0.65170
 Alpha  occ. eigenvalues --   -0.64947  -0.62267  -0.60933  -0.59377  -0.57553
 Alpha  occ. eigenvalues --   -0.55447  -0.55245  -0.53348  -0.53026  -0.52621
 Alpha  occ. eigenvalues --   -0.52367  -0.49889  -0.49003  -0.48992  -0.47867
 Alpha  occ. eigenvalues --   -0.46600  -0.45792  -0.45747  -0.44883  -0.43762
 Alpha  occ. eigenvalues --   -0.37483  -0.36452
 Alpha virt. eigenvalues --    0.04827   0.10952   0.16248   0.19786   0.23210
 Alpha virt. eigenvalues --    0.23767   0.25660   0.27111   0.27596   0.28709
 Alpha virt. eigenvalues --    0.29352   0.29908   0.31530   0.31602   0.32312

 Mulliken charges:
               1
     1  C   -0.296275
     2  C   -0.307614
     3  C   -0.474517
     4  H    0.138686
     5  H    0.150744
     6  H    0.162947
     7  H    0.152931
     8  H    0.157937
     9  H    0.145349
    10  H    0.157455
    11  C   -0.304019
    12  C   -0.298088
    13  C   -0.482101
    14  H    0.152905
    15  H    0.151700
    16  H    0.146271
    17  H    0.150239
    18  H    0.153942
    19  H    0.173229
    20  H    0.158277
    21  C   -0.169943
    22  C   -0.217706
    23  C   -0.170874
    24  C    0.160778
    25  C   -0.171982
    26  C   -0.220073
    27  H    0.227481
    28  H    0.224558
    29  H    0.276369
    30  H    0.276768
    31  H    0.225284
    32  N    0.489191
    33  O   -0.461625
    34  O   -0.458225
 Sum of Mulliken charges =  -0.00000

 Dipole moment (field-independent basis, Debye):
    X=             -0.0851    Y=              4.9847    Z=              0.8978  Tot=              5.0656
 Quadrupole moment (field-independent basis, Debye-Ang):
   XX=            -93.0340   YY=           -100.5614   ZZ=            -92.0910
   XY=            -11.3251   XZ=              0.1941   YZ=             -0.6271

 Normal termination of Gaussian 16 at Wed May  5 17:07:08 2021.
