 Gaussian 16, Revision A.03,
 Gaussian 16:  EM64L-G16RevA.03 25-Dec-2016

 -------------
 #p 6-31g* mp2
 -------------

 ------------------------------------------------------
 Input file generated by CHIRIPA (05-May-2021 14:57:25)
 ------------------------------------------------------
 Symbolic Z-matrix:
 Charge =  0 Multiplicity = 1

                         Standard orientation:
 ---------------------------------------------------------------------
 Center     Atomic      Atomic             Coordinates (Angstroms)
 Number     Number       Type             X           Y           Z
 ---------------------------------------------------------------------
      1          6           0       -5.998665    0.866175    0.739165
      2          6           0       -5.504470   -0.279386    1.371608
      3          6           0       -4.268386   -0.817490    1.001353
      4          6           0       -3.549680   -0.181602   -0.009784
      5          6           0       -4.015195    0.960945   -0.658762
      6          6           0       -5.253764    1.481599   -0.272218
      7          1           0       -6.959850    1.277409    1.033115
      8          1           0       -6.080801   -0.759434    2.157383
      9          1           0       -3.862094   -1.703288    1.474328
     10          1           0       -3.417820    1.417333   -1.438679
     11          1           0       -5.635077    2.371366   -0.765126
     12          7           0       -2.239778   -0.742032   -0.410378
     13          8           0       -1.625897   -0.163116   -1.304047
     14          8           0       -1.851761   -1.749601    0.176890
     15          6           0        5.967180    0.583879    1.072547
     16          6           0        5.117290    1.632611    0.705981
     17          6           0        3.895040    1.370288    0.080008
     18          6           0        3.552724    0.041416   -0.165365
     19          6           0        4.377932   -1.025145    0.187860
     20          6           0        5.595444   -0.739319    0.812774
     21          1           0        6.914812    0.796786    1.558406
     22          1           0        5.403390    2.661198    0.906479
     23          1           0        3.218062    2.163048   -0.214357
     24          1           0        4.065393   -2.040222   -0.025109
     25          1           0        6.253486   -1.555783    1.096345
     26          7           0        2.261291   -0.248734   -0.827494
     27          8           0        1.982792   -1.428142   -1.032608
     28          8           0        1.552018    0.708748   -1.128820
 ---------------------------------------------------------------------

 SCF Done:  E(RHF) =  -868.333769545     A.U. after   16 cycles
 E2 =    -0.2601096283D+01 EUMP2 =    -0.87093486582825D+03

 The electronic state is 1-A.
 Alpha  occ. eigenvalues --  -20.59399 -20.59347 -20.59316 -20.59274 -15.84424
 Alpha  occ. eigenvalues --  -15.84411 -11.30289 -11.30277 -11.26932 -11.26921
 Alpha  occ. eigenvalues --  -11.26902 -11.26886 -11.26758 -11.26751 -11.26057
 Alpha  occ. eigenvalues --  -11.26045 -11.26035 -11.26025  -1.58417  -1.58386
 Alpha  occ. eigenvalues --   -1.37965  -1.37933  -1.18510  -1.18499  -1.07820
 Alpha  occ. eigenvalues --   -1.07789  -1.03988  -1.03976  -0.94589  -0.94512
 Alpha  occ. eigenvalues --   -0.85363  -0.85350  -0.81420  -0.81356  -0.76358
 Alpha  occ. eigenvalues --   -0.76338  -0.70742  -0.70478  -0.69840  -0.69699
 Alpha  occ. eigenvalues --   -0.69616  -0.69604  -0.64157  -0.64129  -0.64004
 Alpha  occ. eigenvalues --   -0.63975  -0.61332  -0.61317  -0.54488  -0.54454
 Alpha  occ. eigenvalues --   -0.52294  -0.52278  -0.52089  -0.52075  -0.47743
 Alpha  occ. eigenvalues --   -0.47375  -0.47315  -0.46949  -0.43375  -0.43103
 Alpha  occ. eigenvalues --   -0.36528  -0.36504  -0.35615  -0.35604
 Alpha virt. eigenvalues --    0.06121   0.06267   0.12031   0.12042   0.17540
 Alpha virt. eigenvalues --    0.17659   0.22093   0.22117   0.27971   0.27989
 Alpha virt. eigenvalues --    0.29026   0.29059   0.31602   0.31631   0.33296

 Mulliken charges:
               1
     1  C   -0.172581
     2  C   -0.218608
     3  C   -0.172233
     4  C    0.159348
     5  C   -0.171753
     6  C   -0.218715
     7  H    0.222083
     8  H    0.220145
     9  H    0.274099
    10  H    0.277329
    11  H    0.220655
    12  N    0.485240
    13  O   -0.441928
    14  O   -0.463315
    15  C   -0.172565
    16  C   -0.218521
    17  C   -0.172186
    18  C    0.159826
    19  C   -0.171435
    20  C   -0.218543
    21  H    0.222152
    22  H    0.219962
    23  H    0.273749
    24  H    0.276266
    25  H    0.220834
    26  N    0.486674
    27  O   -0.451248
    28  O   -0.454731
 Sum of Mulliken charges =  -0.00000

 Dipole moment (field-independent basis, Debye):
    X=             -0.0376    Y=              2.9032    Z=              3.4843  Tot=              4.5355
 Quadrupole moment (field-independent basis, Debye-Ang):
   XX=            -44.3118   YY=            -98.6242   ZZ=           -104.6094
   XY=             -3.3764   XZ=              2.3727   YZ=             -3.4401

 Normal termination of Gaussian 16 at Thu May  6 09:51:26 2021.
