 Gaussian 16, Revision A.03,
 Gaussian 16:  EM64L-G16RevA.03 25-Dec-2016

 -------------
 #p 6-31g* mp2
 -------------

 ------------------------------------------------------
 Input file generated by CHIRIPA (05-May-2021 14:53:18)
 ------------------------------------------------------
 Symbolic Z-matrix:
 Charge =  0 Multiplicity = 1

                         Standard orientation:
 ---------------------------------------------------------------------
 Center     Atomic      Atomic             Coordinates (Angstroms)
 Number     Number       Type             X           Y           Z
 ---------------------------------------------------------------------
      1          6           0        4.293184    0.841588    0.050948
      2          6           0        3.100832    1.795769   -0.025342
      3          6           0        3.480168    3.242491    0.292291
      4          1           0        4.733298    0.894510    1.056156
      5          1           0        5.070040    1.179976   -0.648613
      6          1           0        2.325891    1.454893    0.673147
      7          1           0        2.663388    1.740426   -1.030427
      8          1           0        4.236084    3.605916   -0.411353
      9          1           0        3.896669    3.318760    1.301901
     10          1           0        2.612944    3.907426    0.231933
     11          6           0        3.929860   -0.608409   -0.264063
     12          6           0        5.122212   -1.562589   -0.187773
     13          6           0        4.742876   -3.009312   -0.505406
     14          1           0        3.153004   -0.946797    0.435498
     15          1           0        3.489746   -0.661331   -1.269271
     16          1           0        5.559656   -1.507247    0.817312
     17          1           0        5.897153   -1.221714   -0.886262
     18          1           0        4.326375   -3.085581   -1.515016
     19          1           0        3.986960   -3.372737    0.198238
     20          1           0        5.610100   -3.674247   -0.445048
     21          6           0       -0.759887    0.107155    0.642838
     22          6           0       -1.479725   -1.023844    1.041830
     23          6           0       -2.838865   -1.144349    0.737261
     24          6           0       -3.449200   -0.110251    0.029149
     25          6           0       -2.759100    1.028975   -0.382210
     26          6           0       -1.400741    1.128156   -0.066657
     27          1           0        0.295623    0.192483    0.883702
     28          1           0       -0.984633   -1.818325    1.592947
     29          1           0       -3.420047   -2.009004    1.033940
     30          1           0       -3.280081    1.804531   -0.930397
     31          1           0       -0.844212    2.007649   -0.377798
     32          7           0       -4.887648   -0.226536   -0.299099
     33          8           0       -5.402179    0.698370   -0.923954
     34          8           0       -5.473334   -1.240384    0.074691
 ---------------------------------------------------------------------

 SCF Done:  E(RHF) =  -669.535542377     A.U. after   15 cycles
 E2 =    -0.2091331796D+01 EUMP2 =    -0.67162687417291D+03

 The electronic state is 1-A.
 Alpha  occ. eigenvalues --  -20.60708 -20.60703 -15.85762 -11.31111 -11.27684
 Alpha  occ. eigenvalues --  -11.27679 -11.27379 -11.26688 -11.26672 -11.22883
 Alpha  occ. eigenvalues --  -11.22424 -11.22384 -11.22339 -11.22090 -11.21750
 Alpha  occ. eigenvalues --   -1.59785  -1.39339  -1.19281  -1.09434  -1.08674
 Alpha  occ. eigenvalues --   -1.04685  -1.04484  -0.96897  -0.95515  -0.87913
 Alpha  occ. eigenvalues --   -0.86079  -0.82354  -0.80582  -0.79252  -0.77401
 Alpha  occ. eigenvalues --   -0.71980  -0.71108  -0.70400  -0.66060  -0.64931
 Alpha  occ. eigenvalues --   -0.64688  -0.62037  -0.61878  -0.60288  -0.58521
 Alpha  occ. eigenvalues --   -0.56167  -0.55210  -0.53585  -0.53315  -0.53013
 Alpha  occ. eigenvalues --   -0.52774  -0.50835  -0.48873  -0.48737  -0.48735
 Alpha  occ. eigenvalues --   -0.47612  -0.46766  -0.46687  -0.44748  -0.44741
 Alpha  occ. eigenvalues --   -0.37252  -0.36294
 Alpha virt. eigenvalues --    0.05134   0.11359   0.16622   0.19074   0.22481
 Alpha virt. eigenvalues --    0.23320   0.24443   0.25922   0.26424   0.27901
 Alpha virt. eigenvalues --    0.29573   0.30000   0.30946   0.31318   0.32072

 Mulliken charges:
               1
     1  C   -0.298458
     2  C   -0.306244
     3  C   -0.475108
     4  H    0.152071
     5  H    0.154218
     6  H    0.143802
     7  H    0.153577
     8  H    0.159922
     9  H    0.158416
    10  H    0.159183
    11  C   -0.298877
    12  C   -0.300434
    13  C   -0.476035
    14  H    0.141916
    15  H    0.152332
    16  H    0.153217
    17  H    0.154788
    18  H    0.156962
    19  H    0.153537
    20  H    0.163209
    21  C   -0.176208
    22  C   -0.220010
    23  C   -0.170733
    24  C    0.158137
    25  C   -0.170892
    26  C   -0.222019
    27  H    0.235276
    28  H    0.223227
    29  H    0.275233
    30  H    0.275278
    31  H    0.224038
    32  N    0.488037
    33  O   -0.460699
    34  O   -0.460661
 Sum of Mulliken charges =  -0.00000

 Dipole moment (field-independent basis, Debye):
    X=              5.3732    Y=              0.4330    Z=              1.0928  Tot=              5.5002
 Quadrupole moment (field-independent basis, Debye-Ang):
   XX=           -129.2206   YY=            -91.8663   ZZ=            -93.3694
   XY=             -1.7835   XZ=             -4.3520   YZ=             -2.8741

 Normal termination of Gaussian 16 at Thu May  6 13:58:48 2021.
