 Gaussian 16, Revision A.03,
 Gaussian 16:  EM64L-G16RevA.03 25-Dec-2016

 -------------
 #p 6-31g* mp2
 -------------

 ------------------------------------------------------
 Input file generated by CHIRIPA (05-May-2021 14:51:12)
 ------------------------------------------------------
 Symbolic Z-matrix:
 Charge =  0 Multiplicity = 1

                         Standard orientation:
 ---------------------------------------------------------------------
 Center     Atomic      Atomic             Coordinates (Angstroms)
 Number     Number       Type             X           Y           Z
 ---------------------------------------------------------------------
      1          6           0       -2.103585   -0.463329    0.469830
      2          6           0       -2.395093   -1.781095    1.188509
      3          6           0       -1.123665   -2.518794    1.609303
      4          1           0       -1.484893   -0.664851   -0.415357
      5          1           0       -1.505669    0.181255    1.128921
      6          1           0       -2.993454   -2.422455    0.528784
      7          1           0       -3.013323   -1.576436    2.071981
      8          1           0       -0.526376   -1.900914    2.287589
      9          1           0       -0.506395   -2.751741    0.735625
     10          1           0       -1.355256   -3.458025    2.121232
     11          6           0       -3.364674    0.285760    0.042924
     12          6           0       -3.073166    1.603526   -0.675756
     13          6           0       -4.344594    2.341224   -1.096550
     14          1           0       -3.962590   -0.358825   -0.616168
     15          1           0       -3.983366    0.487282    0.928110
     16          1           0       -2.454936    1.398866   -1.559228
     17          1           0       -2.474805    2.244886   -0.016031
     18          1           0       -4.961864    2.574172   -0.222871
     19          1           0       -4.941883    1.723345   -1.774836
     20          1           0       -4.113003    3.280455   -1.608478
     21          6           0        2.627688    0.647436    0.253536
     22          6           0        3.666843    1.764739    0.154663
     23          6           0        3.440575    2.875027    1.181239
     24          1           0        1.624813    1.075076    0.118213
     25          1           0        2.652060    0.222113    1.266404
     26          1           0        3.641476    2.186899   -0.858132
     27          1           0        4.667374    1.334361    0.290046
     28          1           0        3.486614    2.473983    2.198905
     29          1           0        2.454887    3.331365    1.044204
     30          1           0        4.194643    3.663329    1.092804
     31          6           0        2.840570   -0.469867   -0.766289
     32          6           0        1.801416   -1.587170   -0.667417
     33          6           0        2.027685   -2.697458   -1.693992
     34          1           0        2.816198   -0.044544   -1.779157
     35          1           0        3.843445   -0.897507   -0.630966
     36          1           0        0.800885   -1.156792   -0.802799
     37          1           0        1.826783   -2.009330    0.345379
     38          1           0        3.013371   -3.153796   -1.556957
     39          1           0        1.981645   -2.296414   -2.711659
     40          1           0        1.273617   -3.485760   -1.605557
 ---------------------------------------------------------------------

 SCF Done:  E(RHF) =  -470.732035266     A.U. after   11 cycles
 E2 =    -0.1584432913D+01 EUMP2 =    -0.47231646817936D+03

 The electronic state is 1-A.
 Alpha  occ. eigenvalues --  -11.21638 -11.21580 -11.21578 -11.21498 -11.21413
 Alpha  occ. eigenvalues --  -11.21364 -11.21351 -11.21304 -11.21096 -11.21082
 Alpha  occ. eigenvalues --  -11.21062 -11.20948  -1.08463  -1.08377  -1.03579
 Alpha  occ. eigenvalues --   -1.03461  -0.96003  -0.95935  -0.87003  -0.86968
 Alpha  occ. eigenvalues --   -0.79781  -0.79442  -0.78426  -0.78020  -0.65136
 Alpha  occ. eigenvalues --   -0.64978  -0.60988  -0.60880  -0.59471  -0.59222
 Alpha  occ. eigenvalues --   -0.57734  -0.57436  -0.55290  -0.55211  -0.52672
 Alpha  occ. eigenvalues --   -0.52656  -0.52412  -0.52389  -0.49975  -0.49846
 Alpha  occ. eigenvalues --   -0.48279  -0.47652  -0.46736  -0.46562  -0.46158
 Alpha  occ. eigenvalues --   -0.45737  -0.45619  -0.45104  -0.43785  -0.43746
 Alpha virt. eigenvalues --    0.21418   0.23214   0.23339   0.24725   0.25163
 Alpha virt. eigenvalues --    0.26058   0.26501   0.27354   0.28670   0.29815
 Alpha virt. eigenvalues --    0.30725   0.30831   0.31566   0.31762   0.32217

 Mulliken charges:
               1
     1  C   -0.303962
     2  C   -0.299595
     3  C   -0.481134
     4  H    0.153806
     5  H    0.150430
     6  H    0.151351
     7  H    0.151665
     8  H    0.154483
     9  H    0.164757
    10  H    0.158957
    11  C   -0.297511
    12  C   -0.299677
    13  C   -0.475663
    14  H    0.149485
    15  H    0.149870
    16  H    0.151210
    17  H    0.151738
    18  H    0.155386
    19  H    0.155293
    20  H    0.160230
    21  C   -0.299238
    22  C   -0.299571
    23  C   -0.475675
    24  H    0.150937
    25  H    0.149165
    26  H    0.151886
    27  H    0.151893
    28  H    0.154994
    29  H    0.155046
    30  H    0.160206
    31  C   -0.297140
    32  C   -0.309752
    33  C   -0.477489
    34  H    0.148823
    35  H    0.149287
    36  H    0.159430
    37  H    0.155437
    38  H    0.155708
    39  H    0.155003
    40  H    0.159930
 Sum of Mulliken charges =  -0.00000

 Dipole moment (field-independent basis, Debye):
    X=             -0.0029    Y=             -0.0040    Z=              0.0040  Tot=              0.0064
 Quadrupole moment (field-independent basis, Debye-Ang):
   XX=            -85.2168   YY=            -85.5699   ZZ=            -84.2041
   XY=              0.2042   XZ=              0.1753   YZ=             -0.2390

 Normal termination of Gaussian 16 at Wed May  5 16:48:29 2021.
