 Gaussian 16, Revision A.03,
 Gaussian 16:  EM64L-G16RevA.03 25-Dec-2016

 -------------
 #p 6-31g* mp2
 -------------

 ------------------------------------------------------
 Input file generated by CHIRIPA (05-May-2021 14:51:07)
 ------------------------------------------------------
 Symbolic Z-matrix:
 Charge =  0 Multiplicity = 1

                         Standard orientation:
 ---------------------------------------------------------------------
 Center     Atomic      Atomic             Coordinates (Angstroms)
 Number     Number       Type             X           Y           Z
 ---------------------------------------------------------------------
      1          6           0        1.965970    0.962957   -0.512209
      2          6           0        2.208937    2.306439    0.176272
      3          6           0        1.044654    3.281302   -0.002279
      4          1           0        1.789624    1.133526   -1.583075
      5          1           0        1.046318    0.514531   -0.111523
      6          1           0        3.128605    2.751554   -0.224603
      7          1           0        2.384916    2.132635    1.245589
      8          1           0        0.123377    2.861549    0.414445
      9          1           0        0.871292    3.483985   -1.064101
     10          1           0        1.239418    4.235163    0.497797
     11          6           0        3.121067   -0.022305   -0.342683
     12          6           0        2.878100   -1.365788   -1.031164
     13          6           0        4.042384   -2.340650   -0.852614
     14          1           0        4.040719    0.426121   -0.743369
     15          1           0        3.297414   -0.192874    0.728182
     16          1           0        2.702121   -1.191983   -2.100482
     17          1           0        1.958432   -1.810902   -0.630289
     18          1           0        4.215746   -2.543333    0.209208
     19          1           0        4.963660   -1.920897   -1.269337
     20          1           0        3.847620   -3.294511   -1.352689
     21          6           0       -1.990803   -0.909009    0.719840
     22          6           0       -1.190094   -0.219372    1.824943
     23          6           0       -0.088020   -1.109655    2.399940
     24          1           0       -2.433676   -1.832102    1.118221
     25          1           0       -1.306356   -1.212480   -0.084419
     26          1           0       -1.876042    0.083942    2.626250
     27          1           0       -0.749234    0.702287    1.423937
     28          1           0        0.619004   -1.401855    1.616782
     29          1           0       -0.514207   -2.023712    2.825924
     30          1           0        0.471824   -0.596927    3.188321
     31          6           0       -3.096235   -0.031643    0.135052
     32          6           0       -3.896943   -0.721280   -0.970050
     33          6           0       -4.999017    0.169003   -1.545048
     34          1           0       -3.780682    0.271829    0.939312
     35          1           0       -2.653362    0.891450   -0.263327
     36          1           0       -4.337804   -1.642938   -0.569046
     37          1           0       -3.210995   -1.024594   -1.771356
     38          1           0       -4.572831    1.083061   -1.971032
     39          1           0       -5.706042    0.461204   -0.761888
     40          1           0       -5.558862   -0.343726   -2.333428
 ---------------------------------------------------------------------

 SCF Done:  E(RHF) =  -470.732475571     A.U. after   11 cycles
 E2 =    -0.1585301423D+01 EUMP2 =    -0.47231777699354D+03

 The electronic state is 1-A.
 Alpha  occ. eigenvalues --  -11.21662 -11.21648 -11.21626 -11.21610 -11.21448
 Alpha  occ. eigenvalues --  -11.21408 -11.21382 -11.21343 -11.21156 -11.21115
 Alpha  occ. eigenvalues --  -11.21089 -11.21071  -1.08531  -1.08410  -1.03601
 Alpha  occ. eigenvalues --   -1.03546  -0.96048  -0.95987  -0.87051  -0.87019
 Alpha  occ. eigenvalues --   -0.79697  -0.79579  -0.78310  -0.78262  -0.65556
 Alpha  occ. eigenvalues --   -0.64752  -0.61115  -0.60823  -0.59426  -0.59338
 Alpha  occ. eigenvalues --   -0.57635  -0.57615  -0.55450  -0.55160  -0.52720
 Alpha  occ. eigenvalues --   -0.52706  -0.52458  -0.52426  -0.50037  -0.49903
 Alpha  occ. eigenvalues --   -0.48040  -0.47943  -0.46908  -0.46459  -0.46098
 Alpha  occ. eigenvalues --   -0.45779  -0.45697  -0.45346  -0.43824  -0.43807
 Alpha virt. eigenvalues --    0.19258   0.22061   0.23353   0.24587   0.25385
 Alpha virt. eigenvalues --    0.26483   0.26677   0.28272   0.28968   0.29755
 Alpha virt. eigenvalues --    0.30602   0.31304   0.31697   0.31759   0.32448

 Mulliken charges:
               1
     1  C   -0.307426
     2  C   -0.299350
     3  C   -0.480611
     4  H    0.149122
     5  H    0.159327
     6  H    0.152316
     7  H    0.152334
     8  H    0.158375
     9  H    0.155266
    10  H    0.160865
    11  C   -0.298494
    12  C   -0.303753
    13  C   -0.475618
    14  H    0.149892
    15  H    0.150850
    16  H    0.152163
    17  H    0.153779
    18  H    0.155660
    19  H    0.155387
    20  H    0.160375
    21  C   -0.300235
    22  C   -0.309144
    23  C   -0.481473
    24  H    0.150220
    25  H    0.150732
    26  H    0.153694
    27  H    0.158496
    28  H    0.160099
    29  H    0.156127
    30  H    0.160318
    31  C   -0.298868
    32  C   -0.299761
    33  C   -0.475801
    34  H    0.149678
    35  H    0.150279
    36  H    0.151919
    37  H    0.152335
    38  H    0.155485
    39  H    0.155153
    40  H    0.160286
 Sum of Mulliken charges =  -0.00000

 Dipole moment (field-independent basis, Debye):
    X=             -0.0049    Y=             -0.0055    Z=              0.0071  Tot=              0.0102
 Quadrupole moment (field-independent basis, Debye-Ang):
   XX=            -85.3731   YY=            -85.4533   ZZ=            -83.8320
   XY=              1.4441   XZ=             -1.2687   YZ=             -0.2603

 Normal termination of Gaussian 16 at Wed May  5 15:02:51 2021.
