 Gaussian 16, Revision A.03,
 Gaussian 16:  EM64L-G16RevA.03 25-Dec-2016

 -------------
 #p 6-31g* mp2
 -------------

 ------------------------------------------------------
 Input file generated by CHIRIPA (05-May-2021 14:55:20)
 ------------------------------------------------------
 Symbolic Z-matrix:
 Charge =  0 Multiplicity = 1

                         Standard orientation:
 ---------------------------------------------------------------------
 Center     Atomic      Atomic             Coordinates (Angstroms)
 Number     Number       Type             X           Y           Z
 ---------------------------------------------------------------------
      1          6           0       -4.348964   -0.294559   -1.634529
      2          6           0       -4.555522    0.638497   -0.613128
      3          6           0       -3.620552    0.783102    0.416177
      4          6           0       -2.485120   -0.025313    0.392755
      5          6           0       -2.250961   -0.963923   -0.610973
      6          6           0       -3.199369   -1.091387   -1.630200
      7          1           0       -5.080491   -0.400233   -2.430203
      8          1           0       -5.447394    1.258666   -0.613925
      9          1           0       -3.755439    1.497516    1.219194
     10          1           0       -1.352215   -1.567992   -0.583148
     11          1           0       -3.036331   -1.816841   -2.422146
     12          7           0       -1.488196    0.118700    1.477099
     13          8           0       -0.496055   -0.605458    1.433643
     14          8           0       -1.717824    0.953009    2.349931
     15          6           0        3.233172   -0.549327    0.154702
     16          6           0        3.658429   -1.868302   -0.491399
     17          6           0        3.335514   -3.083716    0.378248
     18          1           0        3.731486   -0.447980    1.128538
     19          1           0        2.153686   -0.579756    0.357626
     20          1           0        4.736542   -1.834854   -0.694308
     21          1           0        3.159195   -1.966430   -1.463896
     22          1           0        2.259432   -3.145011    0.570323
     23          1           0        3.845741   -3.012687    1.344283
     24          1           0        3.647928   -4.015887   -0.102702
     25          6           0        3.549356    0.674889   -0.702649
     26          6           0        3.124099    1.993864   -0.056548
     27          6           0        3.447014    3.209279   -0.926195
     28          1           0        4.628842    0.705319   -0.905573
     29          1           0        3.051042    0.573543   -1.676485
     30          1           0        3.623333    2.091993    0.915949
     31          1           0        2.045987    1.960417    0.146361
     32          1           0        2.936787    3.138250   -1.892230
     33          1           0        4.523096    3.270575   -1.118270
     34          1           0        3.134599    4.141451   -0.445245
 ---------------------------------------------------------------------

 SCF Done:  E(RHF) =  -669.536174974     A.U. after   15 cycles
 E2 =    -0.2091305172D+01 EUMP2 =    -0.67162748014661D+03

 The electronic state is 1-A.
 Alpha  occ. eigenvalues --  -20.61005 -20.60993 -15.86032 -11.31336 -11.27902
 Alpha  occ. eigenvalues --  -11.27892 -11.27629 -11.26901 -11.26891 -11.20885
 Alpha  occ. eigenvalues --  -11.20814 -11.20620 -11.20501 -11.20355 -11.20264
 Alpha  occ. eigenvalues --   -1.60059  -1.39616  -1.19503  -1.08909  -1.07604
 Alpha  occ. eigenvalues --   -1.04897  -1.02799  -0.95754  -0.95241  -0.86299
 Alpha  occ. eigenvalues --   -0.86262  -0.82590  -0.78850  -0.77662  -0.77355
 Alpha  occ. eigenvalues --   -0.72254  -0.71371  -0.70612  -0.65162  -0.64899
 Alpha  occ. eigenvalues --   -0.64238  -0.62246  -0.60211  -0.58611  -0.56843
 Alpha  occ. eigenvalues --   -0.55401  -0.54534  -0.53229  -0.52989  -0.51981
 Alpha  occ. eigenvalues --   -0.51658  -0.49195  -0.49017  -0.49000  -0.47168
 Alpha  occ. eigenvalues --   -0.45889  -0.45254  -0.44948  -0.44542  -0.43015
 Alpha  occ. eigenvalues --   -0.37480  -0.36498
 Alpha virt. eigenvalues --    0.04849   0.11156   0.16319   0.21116   0.23488
 Alpha virt. eigenvalues --    0.24813   0.26819   0.27410   0.27923   0.28699
 Alpha virt. eigenvalues --    0.28897   0.30889   0.31745   0.32351   0.32514

 Mulliken charges:
               1
     1  C   -0.170546
     2  C   -0.218507
     3  C   -0.170736
     4  C    0.157900
     5  C   -0.170774
     6  C   -0.218478
     7  H    0.226211
     8  H    0.224020
     9  H    0.275995
    10  H    0.275167
    11  H    0.224080
    12  N    0.491172
    13  O   -0.463320
    14  O   -0.458113
    15  C   -0.309659
    16  C   -0.298283
    17  C   -0.475560
    18  H    0.149839
    19  H    0.174068
    20  H    0.148570
    21  H    0.144739
    22  H    0.159251
    23  H    0.156499
    24  H    0.154621
    25  C   -0.297296
    26  C   -0.298956
    27  C   -0.475305
    28  H    0.145887
    29  H    0.143556
    30  H    0.153590
    31  H    0.156265
    32  H    0.151448
    33  H    0.153304
    34  H    0.159349
 Sum of Mulliken charges =  -0.00000

 Dipole moment (field-independent basis, Debye):
    X=             -3.7883    Y=             -0.4857    Z=             -3.6440  Tot=              5.2788
 Quadrupole moment (field-independent basis, Debye-Ang):
   XX=            -76.0242   YY=            -94.0799   ZZ=            -97.6144
   XY=             -1.0052   XZ=              8.0847   YZ=              2.2855

 Normal termination of Gaussian 16 at Thu May  6 14:05:00 2021.
