 Gaussian 16, Revision A.03,
 Gaussian 16:  EM64L-G16RevA.03 25-Dec-2016

 -------------
 #p 6-31g* mp2
 -------------

 ------------------------------------------------------
 Input file generated by CHIRIPA (05-May-2021 14:55:25)
 ------------------------------------------------------
 Symbolic Z-matrix:
 Charge =  0 Multiplicity = 1

                         Standard orientation:
 ---------------------------------------------------------------------
 Center     Atomic      Atomic             Coordinates (Angstroms)
 Number     Number       Type             X           Y           Z
 ---------------------------------------------------------------------
      1          6           0        1.876785   -2.560249    0.376467
      2          6           0        0.958318   -1.544747    0.090642
      3          6           0        1.394031   -0.234744   -0.129802
      4          6           0        2.761575    0.025494   -0.056391
      5          6           0        3.701273   -0.964620    0.226331
      6          6           0        3.242922   -2.267461    0.443281
      7          1           0        1.529520   -3.575109    0.546356
      8          1           0       -0.103236   -1.769219    0.038121
      9          1           0        0.704698    0.570533   -0.352888
     10          1           0        4.753220   -0.710181    0.272019
     11          1           0        3.958491   -3.054111    0.665066
     12          7           0        3.234827    1.408545   -0.287915
     13          8           0        4.444924    1.611918   -0.217610
     14          8           0        2.386705    2.263017   -0.535305
     15          6           0       -2.972797    0.841274    0.199218
     16          6           0       -3.667608    2.202549    0.152799
     17          6           0       -2.730009    3.357200    0.507035
     18          1           0       -2.557104    0.682966    1.203750
     19          1           0       -2.120432    0.848629   -0.494189
     20          1           0       -4.519241    2.192168    0.845063
     21          1           0       -4.081862    2.357552   -0.851682
     22          1           0       -1.886427    3.396078   -0.189714
     23          1           0       -2.326290    3.229754    1.516673
     24          1           0       -3.247258    4.320922    0.467636
     25          6           0       -3.897160   -0.323004   -0.152543
     26          6           0       -3.202350   -1.684279   -0.106123
     27          6           0       -4.139949   -2.838929   -0.460359
     28          1           0       -4.749526   -0.330359    0.540864
     29          1           0       -4.312854   -0.164696   -1.157074
     30          1           0       -2.788095   -1.839282    0.898358
     31          1           0       -2.350717   -1.673898   -0.798388
     32          1           0       -4.543667   -2.711483   -1.469997
     33          1           0       -4.983531   -2.877808    0.236389
     34          1           0       -3.622699   -3.802652   -0.420960
 ---------------------------------------------------------------------

 SCF Done:  E(RHF) =  -669.535668758     A.U. after   15 cycles
 E2 =    -0.2092035583D+01 EUMP2 =    -0.67162770434078D+03

 The electronic state is 1-A.
 Alpha  occ. eigenvalues --  -20.60695 -20.60690 -15.85746 -11.31081 -11.27653
 Alpha  occ. eigenvalues --  -11.27619 -11.27378 -11.26670 -11.26566 -11.22652
 Alpha  occ. eigenvalues --  -11.22117 -11.22042 -11.21909 -11.21899 -11.21100
 Alpha  occ. eigenvalues --   -1.59770  -1.39325  -1.19246  -1.09111  -1.08648
 Alpha  occ. eigenvalues --   -1.04641  -1.04117  -0.96520  -0.95490  -0.87542
 Alpha  occ. eigenvalues --   -0.86044  -0.82327  -0.80252  -0.78929  -0.77356
 Alpha  occ. eigenvalues --   -0.71965  -0.71093  -0.70363  -0.65737  -0.64895
 Alpha  occ. eigenvalues --   -0.64657  -0.62002  -0.61497  -0.59942  -0.58144
 Alpha  occ. eigenvalues --   -0.55779  -0.55155  -0.53240  -0.53007  -0.52975
 Alpha  occ. eigenvalues --   -0.52662  -0.50459  -0.48748  -0.48722  -0.48463
 Alpha  occ. eigenvalues --   -0.47275  -0.46415  -0.46334  -0.44737  -0.44382
 Alpha  occ. eigenvalues --   -0.37234  -0.36243
 Alpha virt. eigenvalues --    0.05151   0.11387   0.16630   0.19645   0.22729
 Alpha virt. eigenvalues --    0.23135   0.24657   0.25961   0.27451   0.27912
 Alpha virt. eigenvalues --    0.29370   0.30696   0.31133   0.31392   0.32103

 Mulliken charges:
               1
     1  C   -0.172957
     2  C   -0.228369
     3  C   -0.177569
     4  C    0.159252
     5  C   -0.171137
     6  C   -0.218569
     7  H    0.225485
     8  H    0.237161
     9  H    0.278634
    10  H    0.275099
    11  H    0.222827
    12  N    0.488011
    13  O   -0.460812
    14  O   -0.460832
    15  C   -0.302903
    16  C   -0.300098
    17  C   -0.477994
    18  H    0.150473
    19  H    0.145784
    20  H    0.152938
    21  H    0.153627
    22  H    0.161858
    23  H    0.156238
    24  H    0.162478
    25  C   -0.297158
    26  C   -0.308761
    27  C   -0.474614
    28  H    0.153356
    29  H    0.153235
    30  H    0.150997
    31  H    0.147761
    32  H    0.158958
    33  H    0.159044
    34  H    0.158556
 Sum of Mulliken charges =  -0.00000

 Dipole moment (field-independent basis, Debye):
    X=             -1.9272    Y=             -4.7697    Z=              0.8225  Tot=              5.2097
 Quadrupole moment (field-independent basis, Debye-Ang):
   XX=            -98.9728   YY=            -95.6154   ZZ=            -94.6886
   XY=            -15.8047   XZ=              2.8387   YZ=             -0.2711

 Normal termination of Gaussian 16 at Wed May  5 16:09:49 2021.
