 Gaussian 16, Revision A.03,
 Gaussian 16:  EM64L-G16RevA.03 25-Dec-2016

 -------------
 #p 6-31g* mp2
 -------------

 ------------------------------------------------------
 Input file generated by CHIRIPA (05-May-2021 14:55:25)
 ------------------------------------------------------
 Symbolic Z-matrix:
 Charge =  0 Multiplicity = 1

                         Standard orientation:
 ---------------------------------------------------------------------
 Center     Atomic      Atomic             Coordinates (Angstroms)
 Number     Number       Type             X           Y           Z
 ---------------------------------------------------------------------
      1          6           0       -0.802953   -0.637002    1.595773
      2          6           0       -1.960229   -1.418877    1.672612
      3          6           0       -3.078818   -1.110038    0.892916
      4          6           0       -3.005156   -0.007271    0.043346
      5          6           0       -1.866605    0.790985   -0.055538
      6          6           0       -0.759910    0.463493    0.733463
      7          1           0        0.061374   -0.884161    2.205074
      8          1           0       -1.996504   -2.274121    2.341408
      9          1           0       -3.987513   -1.698349    0.932701
     10          1           0       -1.860440    1.637379   -0.731554
     11          1           0        0.137507    1.072488    0.671724
     12          7           0       -4.183060    0.329556   -0.787009
     13          8           0       -4.092840    1.306291   -1.527607
     14          8           0       -5.174218   -0.389552   -0.681520
     15          6           0        3.915383    0.772820   -0.173422
     16          6           0        2.931733    1.855599    0.271560
     17          6           0        3.581323    3.235366    0.381420
     18          1           0        4.751068    0.730597    0.538471
     19          1           0        4.345786    1.054834   -1.144305
     20          1           0        2.502276    1.570951    1.240663
     21          1           0        2.098196    1.895118   -0.441371
     22          1           0        3.994250    3.544741   -0.584178
     23          1           0        4.400627    3.218734    1.107411
     24          1           0        2.860303    3.994265    0.700889
     25          6           0        3.280837   -0.612091   -0.287886
     26          6           0        4.264487   -1.694870   -0.732868
     27          6           0        3.614897   -3.074637   -0.842728
     28          1           0        2.850433   -0.894105    0.682997
     29          1           0        2.445152   -0.569868   -0.999780
     30          1           0        5.098024   -1.734388   -0.019938
     31          1           0        4.693943   -1.410223   -1.701971
     32          1           0        2.795593   -3.058004   -1.568721
     33          1           0        3.201969   -3.384013    0.122870
     34          1           0        4.335917   -3.833536   -1.162198
 ---------------------------------------------------------------------

 SCF Done:  E(RHF) =  -669.535246254     A.U. after   15 cycles
 E2 =    -0.2092280148D+01 EUMP2 =    -0.67162752640183D+03

 The electronic state is 1-A.
 Alpha  occ. eigenvalues --  -20.60688 -20.60683 -15.85739 -11.31077 -11.27642
 Alpha  occ. eigenvalues --  -11.27615 -11.27362 -11.26660 -11.26526 -11.22850
 Alpha  occ. eigenvalues --  -11.22362 -11.22324 -11.22276 -11.21981 -11.21691
 Alpha  occ. eigenvalues --   -1.59764  -1.39318  -1.19237  -1.09385  -1.08635
 Alpha  occ. eigenvalues --   -1.04638  -1.04422  -0.96826  -0.95481  -0.87849
 Alpha  occ. eigenvalues --   -0.86038  -0.82320  -0.80556  -0.79223  -0.77350
 Alpha  occ. eigenvalues --   -0.71958  -0.71087  -0.70354  -0.66003  -0.64884
 Alpha  occ. eigenvalues --   -0.64648  -0.62015  -0.61813  -0.60196  -0.58458
 Alpha  occ. eigenvalues --   -0.56094  -0.55142  -0.53548  -0.53265  -0.52962
 Alpha  occ. eigenvalues --   -0.52713  -0.50768  -0.48864  -0.48716  -0.48636
 Alpha  occ. eigenvalues --   -0.47580  -0.46691  -0.46633  -0.44730  -0.44676
 Alpha  occ. eigenvalues --   -0.37212  -0.36230
 Alpha virt. eigenvalues --    0.05154   0.11363   0.16621   0.19802   0.22525
 Alpha virt. eigenvalues --    0.23349   0.24629   0.25599   0.27092   0.28155
 Alpha virt. eigenvalues --    0.29941   0.30184   0.30408   0.31278   0.31812

 Mulliken charges:
               1
     1  C   -0.174129
     2  C   -0.218429
     3  C   -0.171687
     4  C    0.159041
     5  C   -0.174916
     6  C   -0.226275
     7  H    0.224980
     8  H    0.222756
     9  H    0.275066
    10  H    0.274921
    11  H    0.239096
    12  N    0.488034
    13  O   -0.460825
    14  O   -0.460833
    15  C   -0.297509
    16  C   -0.308196
    17  C   -0.475026
    18  H    0.152527
    19  H    0.154368
    20  H    0.146047
    21  H    0.150741
    22  H    0.159764
    23  H    0.158439
    24  H    0.161924
    25  C   -0.299968
    26  C   -0.300384
    27  C   -0.475988
    28  H    0.141619
    29  H    0.153196
    30  H    0.153024
    31  H    0.155058
    32  H    0.157962
    33  H    0.152549
    34  H    0.163052
 Sum of Mulliken charges =  -0.00000

 Dipole moment (field-independent basis, Debye):
    X=              4.4492    Y=             -1.1565    Z=              2.8263  Tot=              5.3964
 Quadrupole moment (field-independent basis, Debye-Ang):
   XX=           -118.2309   YY=            -92.7120   ZZ=            -93.4613
   XY=              5.6237   XZ=             -9.8743   YZ=             -2.0958

 Normal termination of Gaussian 16 at Wed May  5 20:49:32 2021.
