 Gaussian 16, Revision A.03,
 Gaussian 16:  EM64L-G16RevA.03 25-Dec-2016

 -------------
 #p 6-31g* mp2
 -------------

 ------------------------------------------------------
 Input file generated by CHIRIPA (05-May-2021 14:57:21)
 ------------------------------------------------------
 Symbolic Z-matrix:
 Charge =  0 Multiplicity = 1

                         Standard orientation:
 ---------------------------------------------------------------------
 Center     Atomic      Atomic             Coordinates (Angstroms)
 Number     Number       Type             X           Y           Z
 ---------------------------------------------------------------------
      1          6           0       -5.139713   -1.530971   -1.066814
      2          6           0       -5.105025   -1.531583    0.331512
      3          6           0       -4.262703   -0.654469    1.021230
      4          6           0       -3.464911    0.213732    0.277560
      5          6           0       -3.476981    0.238271   -1.116192
      6          6           0       -4.327013   -0.647603   -1.784937
      7          1           0       -5.797044   -2.215736   -1.594458
      8          1           0       -5.735077   -2.216515    0.891823
      9          1           0       -4.216003   -0.633829    2.103271
     10          1           0       -2.837296    0.932663   -1.647267
     11          1           0       -4.351872   -0.644914   -2.870948
     12          7           0       -2.569101    1.146930    0.996632
     13          8           0       -1.876055    1.902008    0.318265
     14          8           0       -2.576973    1.105623    2.224992
     15          6           0        1.749577    1.511132   -0.812510
     16          6           0        3.075671    1.956025   -0.820727
     17          6           0        4.115936    1.094250   -0.460532
     18          6           0        3.792656   -0.211814   -0.095874
     19          6           0        2.481434   -0.684738   -0.077749
     20          6           0        1.457207    0.194492   -0.441701
     21          1           0        0.947703    2.187359   -1.093777
     22          1           0        3.305687    2.978015   -1.108260
     23          1           0        5.151374    1.412496   -0.458125
     24          1           0        2.283311   -1.709098    0.213544
     25          1           0        0.428270   -0.153761   -0.434400
     26          7           0        4.885451   -1.133376    0.287438
     27          8           0        4.574326   -2.279300    0.604763
     28          8           0        6.032414   -0.692321    0.263295
 ---------------------------------------------------------------------

 SCF Done:  E(RHF) =  -868.339594936     A.U. after   16 cycles
 E2 =    -0.2599178793D+01 EUMP2 =    -0.87093877372870D+03

 The electronic state is 1-A.
 Alpha  occ. eigenvalues --  -20.61939 -20.61859 -20.60207 -20.60202 -15.86924
 Alpha  occ. eigenvalues --  -15.85257 -11.32090 -11.30448 -11.28662 -11.28575
 Alpha  occ. eigenvalues --  -11.28278 -11.27582 -11.27537 -11.27028 -11.27019
 Alpha  occ. eigenvalues --  -11.26569 -11.25949 -11.25918  -1.60956  -1.59287
 Alpha  occ. eigenvalues --   -1.40520  -1.38846  -1.20228  -1.18597  -1.09652
 Alpha  occ. eigenvalues --   -1.07987  -1.05591  -1.03992  -0.96524  -0.94856
 Alpha  occ. eigenvalues --   -0.86998  -0.85376  -0.83362  -0.81714  -0.78447
 Alpha  occ. eigenvalues --   -0.76818  -0.73153  -0.72279  -0.71477  -0.71314
 Alpha  occ. eigenvalues --   -0.70609  -0.69608  -0.65875  -0.65576  -0.64235
 Alpha  occ. eigenvalues --   -0.63982  -0.62941  -0.61361  -0.56073  -0.54367
 Alpha  occ. eigenvalues --   -0.53935  -0.53670  -0.52310  -0.52084  -0.49920
 Alpha  occ. eigenvalues --   -0.49863  -0.48244  -0.48220  -0.45948  -0.44292
 Alpha  occ. eigenvalues --   -0.38184  -0.37187  -0.36499  -0.35609
 Alpha virt. eigenvalues --    0.04047   0.05740   0.10429   0.12063   0.15570
 Alpha virt. eigenvalues --    0.17294   0.20518   0.22161   0.26452   0.27148
 Alpha virt. eigenvalues --    0.27907   0.29081   0.30622   0.31487   0.31976

 Mulliken charges:
               1
     1  C   -0.169865
     2  C   -0.218034
     3  C   -0.170416
     4  C    0.156102
     5  C   -0.174130
     6  C   -0.217778
     7  H    0.229126
     8  H    0.227091
     9  H    0.278083
    10  H    0.271539
    11  H    0.225928
    12  N    0.489532
    13  O   -0.471290
    14  O   -0.451850
    15  C   -0.167868
    16  C   -0.219976
    17  C   -0.171447
    18  C    0.157434
    19  C   -0.171949
    20  C   -0.216031
    21  H    0.237470
    22  H    0.221720
    23  H    0.273085
    24  H    0.271921
    25  H    0.218737
    26  N    0.488357
    27  O   -0.463082
    28  O   -0.462411
 Sum of Mulliken charges =  -0.00000

 Dipole moment (field-independent basis, Debye):
    X=             -7.5315    Y=             -0.0155    Z=             -3.8106  Tot=              8.4406
 Quadrupole moment (field-independent basis, Debye-Ang):
   XX=           -110.0503   YY=           -105.1397   ZZ=           -102.6791
   XY=             28.3501   XZ=              0.9305   YZ=             -3.8904

 Normal termination of Gaussian 16 at Thu May  6 08:05:03 2021.
