 Gaussian 16, Revision A.03,
 Gaussian 16:  EM64L-G16RevA.03 25-Dec-2016

 -------------
 #p 6-31g* mp2
 -------------

 ------------------------------------------------------
 Input file generated by CHIRIPA (05-May-2021 14:51:09)
 ------------------------------------------------------
 Symbolic Z-matrix:
 Charge =  0 Multiplicity = 1

                         Standard orientation:
 ---------------------------------------------------------------------
 Center     Atomic      Atomic             Coordinates (Angstroms)
 Number     Number       Type             X           Y           Z
 ---------------------------------------------------------------------
      1          6           0       -3.017671   -0.663035    0.144591
      2          6           0       -2.100659   -0.941103    1.336125
      3          6           0       -1.221531   -2.175006    1.130188
      4          1           0       -3.652527   -1.541624   -0.034251
      5          1           0       -2.404859   -0.531292   -0.757905
      6          1           0       -2.714938   -1.070911    2.236363
      7          1           0       -1.468046   -0.061678    1.512272
      8          1           0       -0.584497   -2.051333    0.248432
      9          1           0       -1.838474   -3.066300    0.976637
     10          1           0       -0.574009   -2.355295    1.993942
     11          6           0       -3.902733    0.567395    0.335471
     12          6           0       -4.819745    0.845463   -0.856063
     13          6           0       -5.698873    2.079366   -0.650125
     14          1           0       -4.515545    0.435652    1.237968
     15          1           0       -3.267877    1.445984    0.514313
     16          1           0       -5.452358   -0.033962   -1.032209
     17          1           0       -4.205466    0.975271   -1.756300
     18          1           0       -5.081930    2.970660   -0.496575
     19          1           0       -6.335907    1.955693    0.231630
     20          1           0       -6.346395    2.259655   -1.513880
     21          6           0        3.428983    0.771496    0.002356
     22          6           0        4.794825    1.457823    0.039983
     23          6           0        4.715982    2.905034    0.526971
     24          1           0        2.756123    1.343591   -0.651029
     25          1           0        2.985518    0.797507    1.007372
     26          1           0        5.236187    1.429300   -0.964507
     27          1           0        5.464568    0.883920    0.693203
     28          1           0        4.299328    2.948979    1.538441
     29          1           0        4.069649    3.497456   -0.128689
     30          1           0        5.703483    3.376560    0.546055
     31          6           0        3.491421   -0.675855   -0.482418
     32          6           0        2.125579   -1.362183   -0.520046
     33          6           0        2.204422   -2.809394   -1.007034
     34          1           0        3.934886   -0.701868   -1.487435
     35          1           0        4.164281   -1.247951    0.170966
     36          1           0        1.455836   -0.788280   -1.173266
     37          1           0        1.684218   -1.333660    0.484445
     38          1           0        2.850755   -3.401816   -0.351374
     39          1           0        2.621076   -2.853339   -2.018502
     40          1           0        1.216921   -3.280920   -1.026117
 ---------------------------------------------------------------------

 SCF Done:  E(RHF) =  -470.732396432     A.U. after   11 cycles
 E2 =    -0.1583369385D+01 EUMP2 =    -0.47231576581621D+03

 The electronic state is 1-A.
 Alpha  occ. eigenvalues --  -11.21612 -11.21594 -11.21572 -11.21568 -11.21411
 Alpha  occ. eigenvalues --  -11.21390 -11.21350 -11.21330 -11.21084 -11.21066
 Alpha  occ. eigenvalues --  -11.21050 -11.20966  -1.08450  -1.08399  -1.03589
 Alpha  occ. eigenvalues --   -1.03460  -0.96047  -0.95900  -0.87004  -0.86975
 Alpha  occ. eigenvalues --   -0.79684  -0.79508  -0.78286  -0.78195  -0.65101
 Alpha  occ. eigenvalues --   -0.65017  -0.61065  -0.60845  -0.59373  -0.59323
 Alpha  occ. eigenvalues --   -0.57766  -0.57459  -0.55314  -0.55138  -0.52738
 Alpha  occ. eigenvalues --   -0.52628  -0.52495  -0.52243  -0.49972  -0.49837
 Alpha  occ. eigenvalues --   -0.47921  -0.47870  -0.46712  -0.46515  -0.45834
 Alpha  occ. eigenvalues --   -0.45744  -0.45716  -0.45597  -0.43790  -0.43760
 Alpha virt. eigenvalues --    0.21747   0.23114   0.23508   0.24855   0.26062
 Alpha virt. eigenvalues --    0.26600   0.26824   0.27601   0.27904   0.29131
 Alpha virt. eigenvalues --    0.30404   0.31345   0.31501   0.31887   0.32221

 Mulliken charges:
               1
     1  C   -0.298451
     2  C   -0.299724
     3  C   -0.483996
     4  H    0.149582
     5  H    0.149417
     6  H    0.151639
     7  H    0.152066
     8  H    0.167559
     9  H    0.154242
    10  H    0.158661
    11  C   -0.298311
    12  C   -0.299628
    13  C   -0.475697
    14  H    0.149521
    15  H    0.149712
    16  H    0.151918
    17  H    0.151797
    18  H    0.155173
    19  H    0.155188
    20  H    0.160200
    21  C   -0.298278
    22  C   -0.299647
    23  C   -0.475705
    24  H    0.149230
    25  H    0.149360
    26  H    0.151991
    27  H    0.152028
    28  H    0.155164
    29  H    0.155063
    30  H    0.160329
    31  C   -0.297585
    32  C   -0.305038
    33  C   -0.478622
    34  H    0.149311
    35  H    0.149733
    36  H    0.150007
    37  H    0.158077
    38  H    0.155546
    39  H    0.155202
    40  H    0.162963
 Sum of Mulliken charges =  -0.00000

 Dipole moment (field-independent basis, Debye):
    X=              0.0167    Y=             -0.0110    Z=              0.0014  Tot=              0.0200
 Quadrupole moment (field-independent basis, Debye-Ang):
   XX=            -84.8447   YY=            -86.2219   ZZ=            -83.8391
   XY=              0.8286   XZ=             -0.1444   YZ=             -0.8966

 Normal termination of Gaussian 16 at Thu May  6 02:08:31 2021.
