 Gaussian 16, Revision A.03,
 Gaussian 16:  EM64L-G16RevA.03 25-Dec-2016

 -------------
 #p 6-31g* mp2
 -------------

 ------------------------------------------------------
 Input file generated by CHIRIPA (05-May-2021 14:53:15)
 ------------------------------------------------------
 Symbolic Z-matrix:
 Charge =  0 Multiplicity = 1

                         Standard orientation:
 ---------------------------------------------------------------------
 Center     Atomic      Atomic             Coordinates (Angstroms)
 Number     Number       Type             X           Y           Z
 ---------------------------------------------------------------------
      1          6           0        3.410614    0.604598    0.076277
      2          6           0        3.385926    2.003095   -0.541447
      3          6           0        2.303006    2.897328    0.063058
      4          1           0        2.427117    0.133865   -0.058214
      5          1           0        3.569368    0.692777    1.159982
      6          1           0        3.228648    1.912241   -1.623863
      7          1           0        4.369655    2.470480   -0.405639
      8          1           0        2.459531    3.017603    1.139922
      9          1           0        1.312041    2.456192   -0.085225
     10          1           0        2.303162    3.892250   -0.393000
     11          6           0        4.487920   -0.301116   -0.517709
     12          6           0        4.512608   -1.699613    0.100014
     13          6           0        5.595528   -2.593846   -0.504491
     14          1           0        4.329167   -0.389294   -1.601415
     15          1           0        5.471418    0.169617   -0.383218
     16          1           0        3.528879   -2.166998   -0.035794
     17          1           0        4.669886   -1.608759    1.182431
     18          1           0        6.586494   -2.152710   -0.356208
     19          1           0        5.439003   -2.714121   -1.581354
     20          1           0        5.595373   -3.588768   -0.048432
     21          6           0       -5.018113   -0.718204   -1.334491
     22          6           0       -4.226012    0.398080   -1.622600
     23          6           0       -3.152571    0.739754   -0.794634
     24          6           0       -2.898514   -0.060575    0.318118
     25          6           0       -3.669402   -1.178905    0.631742
     26          6           0       -4.737774   -1.501753   -0.210221
     27          1           0       -5.850019   -0.976312   -1.983111
     28          1           0       -4.441392    1.008413   -2.495041
     29          1           0       -2.523206    1.598519   -0.994233
     30          1           0       -3.430092   -1.768154    1.508631
     31          1           0       -5.351237   -2.369243    0.015988
     32          7           0       -1.764794    0.291174    1.202058
     33          8           0       -1.561746   -0.430093    2.176318
     34          8           0       -1.100697    1.281483    0.903893
 ---------------------------------------------------------------------

 SCF Done:  E(RHF) =  -669.535966362     A.U. after   15 cycles
 E2 =    -0.2090851811D+01 EUMP2 =    -0.67162681817305D+03

 The electronic state is 1-A.
 Alpha  occ. eigenvalues --  -20.60933 -20.60923 -15.85971 -11.31298 -11.27864
 Alpha  occ. eigenvalues --  -11.27859 -11.27600 -11.26872 -11.26862 -11.20940
 Alpha  occ. eigenvalues --  -11.20631 -11.20597 -11.20562 -11.20350 -11.19679
 Alpha  occ. eigenvalues --   -1.59995  -1.39551  -1.19468  -1.08870  -1.07565
 Alpha  occ. eigenvalues --   -1.04865  -1.02647  -0.95712  -0.95077  -0.86265
 Alpha  occ. eigenvalues --   -0.86088  -0.82546  -0.78730  -0.77599  -0.77334
 Alpha  occ. eigenvalues --   -0.72194  -0.71312  -0.70576  -0.65124  -0.64867
 Alpha  occ. eigenvalues --   -0.64207  -0.62213  -0.60051  -0.58489  -0.56680
 Alpha  occ. eigenvalues --   -0.55368  -0.54357  -0.53197  -0.52957  -0.51801
 Alpha  occ. eigenvalues --   -0.51472  -0.49062  -0.48951  -0.48882  -0.47017
 Alpha  occ. eigenvalues --   -0.45784  -0.45044  -0.44858  -0.44707  -0.42912
 Alpha  occ. eigenvalues --   -0.37447  -0.36467
 Alpha virt. eigenvalues --    0.04914   0.11187   0.16393   0.21286   0.23674
 Alpha virt. eigenvalues --    0.25200   0.27191   0.27467   0.27978   0.28415
 Alpha virt. eigenvalues --    0.29049   0.30807   0.32020   0.32457   0.32648

 Mulliken charges:
               1
     1  C   -0.297230
     2  C   -0.299352
     3  C   -0.482056
     4  H    0.154290
     5  H    0.151914
     6  H    0.145752
     7  H    0.147312
     8  H    0.156540
     9  H    0.176312
    10  H    0.151050
    11  C   -0.297843
    12  C   -0.298835
    13  C   -0.475184
    14  H    0.145978
    15  H    0.147426
    16  H    0.151866
    17  H    0.153121
    18  H    0.154170
    19  H    0.153104
    20  H    0.158575
    21  C   -0.170644
    22  C   -0.218517
    23  C   -0.170815
    24  C    0.157529
    25  C   -0.170732
    26  C   -0.218555
    27  H    0.226016
    28  H    0.223883
    29  H    0.275592
    30  H    0.275913
    31  H    0.223845
    32  N    0.492934
    33  O   -0.458728
    34  O   -0.464631
 Sum of Mulliken charges =  -0.00000

 Dipole moment (field-independent basis, Debye):
    X=             -4.2937    Y=             -1.2701    Z=             -2.9986  Tot=              5.3890
 Quadrupole moment (field-independent basis, Debye-Ang):
   XX=            -73.1113   YY=            -92.8317   ZZ=            -95.1932
   XY=              5.6023   XZ=              8.4403   YZ=             -2.7967

 Normal termination of Gaussian 16 at Thu May  6 09:02:19 2021.
