 Gaussian 16, Revision A.03,
 Gaussian 16:  EM64L-G16RevA.03 25-Dec-2016

 -------------
 #p 6-31g* mp2
 -------------

 ------------------------------------------------------
 Input file generated by CHIRIPA (05-May-2021 14:51:08)
 ------------------------------------------------------
 Symbolic Z-matrix:
 Charge =  0 Multiplicity = 1

                         Standard orientation:
 ---------------------------------------------------------------------
 Center     Atomic      Atomic             Coordinates (Angstroms)
 Number     Number       Type             X           Y           Z
 ---------------------------------------------------------------------
      1          6           0        3.083066   -0.633983   -0.038229
      2          6           0        3.415211   -1.796384   -0.974439
      3          6           0        2.921010   -3.142519   -0.443892
      4          1           0        3.527944   -0.826863    0.947583
      5          1           0        1.995392   -0.592851    0.112331
      6          1           0        4.501816   -1.834458   -1.124289
      7          1           0        2.969653   -1.600624   -1.958193
      8          1           0        1.834343   -3.128896   -0.311338
      9          1           0        3.375212   -3.364059    0.527304
     10          1           0        3.169038   -3.959468   -1.128682
     11          6           0        3.570689    0.718410   -0.554936
     12          6           0        3.238544    1.880811    0.381274
     13          6           0        3.732745    3.226946   -0.149273
     14          1           0        4.658363    0.677278   -0.705496
     15          1           0        3.125812    0.911289   -1.540748
     16          1           0        3.684103    1.685051    1.365028
     17          1           0        2.151939    1.918884    0.531124
     18          1           0        3.278543    3.448485   -1.120469
     19          1           0        4.819412    3.213323   -0.281827
     20          1           0        3.484718    4.043894    0.535517
     21          6           0       -3.706194    0.177903   -0.328797
     22          6           0       -5.225342    0.152320   -0.156983
     23          6           0       -5.970269    0.595267   -1.416617
     24          1           0       -3.391783    1.193879   -0.604268
     25          1           0       -3.428134   -0.473847   -1.168617
     26          1           0       -5.500336    0.802845    0.683142
     27          1           0       -5.536153   -0.863669    0.118297
     28          1           0       -5.724869   -0.058995   -2.259424
     29          1           0       -5.688849    1.616989   -1.691370
     30          1           0       -7.054785    0.569440   -1.271646
     31          6           0       -2.947561   -0.262330    0.921963
     32          6           0       -1.428413   -0.236746    0.750148
     33          6           0       -0.683486   -0.679693    2.009782
     34          1           0       -3.225622    0.389420    1.761782
     35          1           0       -3.261972   -1.278306    1.197434
     36          1           0       -1.117602    0.779243    0.474867
     37          1           0       -1.153419   -0.887272   -0.089977
     38          1           0       -0.964906   -1.701416    2.284535
     39          1           0       -0.928885   -0.025432    2.852589
     40          1           0        0.401030   -0.653866    1.864811
 ---------------------------------------------------------------------

 SCF Done:  E(RHF) =  -470.733308112     A.U. after   11 cycles
 E2 =    -0.1583062289D+01 EUMP2 =    -0.47231637040190D+03

 The electronic state is 1-A.
 Alpha  occ. eigenvalues --  -11.21656 -11.21621 -11.21610 -11.21607 -11.21435
 Alpha  occ. eigenvalues --  -11.21405 -11.21375 -11.21345 -11.21088 -11.21078
 Alpha  occ. eigenvalues --  -11.21075 -11.21025  -1.08468  -1.08430  -1.03557
 Alpha  occ. eigenvalues --   -1.03530  -0.96016  -0.95964  -0.87030  -0.86982
 Alpha  occ. eigenvalues --   -0.79623  -0.79590  -0.78296  -0.78242  -0.65094
 Alpha  occ. eigenvalues --   -0.65075  -0.60990  -0.60892  -0.59422  -0.59317
 Alpha  occ. eigenvalues --   -0.57721  -0.57500  -0.55276  -0.55268  -0.52767
 Alpha  occ. eigenvalues --   -0.52654  -0.52488  -0.52306  -0.49936  -0.49917
 Alpha  occ. eigenvalues --   -0.47980  -0.47873  -0.46683  -0.46598  -0.45824
 Alpha  occ. eigenvalues --   -0.45779  -0.45739  -0.45672  -0.43806  -0.43759
 Alpha virt. eigenvalues --    0.20632   0.23148   0.23766   0.24167   0.26251
 Alpha virt. eigenvalues --    0.26534   0.26854   0.27615   0.27897   0.29574
 Alpha virt. eigenvalues --    0.30182   0.31320   0.31613   0.31799   0.31894

 Mulliken charges:
               1
     1  C   -0.306956
     2  C   -0.299049
     3  C   -0.476200
     4  H    0.149269
     5  H    0.158821
     6  H    0.151979
     7  H    0.151853
     8  H    0.155387
     9  H    0.155341
    10  H    0.160258
    11  C   -0.297546
    12  C   -0.300875
    13  C   -0.475693
    14  H    0.149557
    15  H    0.149694
    16  H    0.151981
    17  H    0.152669
    18  H    0.155206
    19  H    0.155295
    20  H    0.160232
    21  C   -0.298350
    22  C   -0.299693
    23  C   -0.475729
    24  H    0.149574
    25  H    0.149432
    26  H    0.152020
    27  H    0.152038
    28  H    0.155182
    29  H    0.155181
    30  H    0.160354
    31  C   -0.298293
    32  C   -0.300505
    33  C   -0.482383
    34  H    0.149887
    35  H    0.149974
    36  H    0.151607
    37  H    0.151127
    38  H    0.155132
    39  H    0.155246
    40  H    0.166977
 Sum of Mulliken charges =  -0.00000

 Dipole moment (field-independent basis, Debye):
    X=              0.0058    Y=             -0.0005    Z=              0.0019  Tot=              0.0061
 Quadrupole moment (field-independent basis, Debye-Ang):
   XX=            -84.5098   YY=            -85.0025   ZZ=            -85.2060
   XY=             -0.2119   XZ=             -0.0374   YZ=              0.7623

 Normal termination of Gaussian 16 at Thu May  6 08:25:53 2021.
