 Gaussian 16, Revision A.03,
 Gaussian 16:  EM64L-G16RevA.03 25-Dec-2016

 -------------
 #p 6-31g* mp2
 -------------

 ------------------------------------------------------
 Input file generated by CHIRIPA (05-May-2021 14:57:24)
 ------------------------------------------------------
 Symbolic Z-matrix:
 Charge =  0 Multiplicity = 1

                         Standard orientation:
 ---------------------------------------------------------------------
 Center     Atomic      Atomic             Coordinates (Angstroms)
 Number     Number       Type             X           Y           Z
 ---------------------------------------------------------------------
      1          6           0       -1.628788   -2.190204   -0.683929
      2          6           0       -2.888243   -2.053014   -1.276780
      3          6           0       -3.715411   -0.975727   -0.945429
      4          6           0       -3.249305   -0.050049   -0.013145
      5          6           0       -1.999587   -0.159256    0.594778
      6          6           0       -1.189255   -1.244554    0.248315
      7          1           0       -0.992763   -3.030178   -0.947200
      8          1           0       -3.232198   -2.785893   -2.001093
      9          1           0       -4.694947   -0.845273   -1.389174
     10          1           0       -1.684188    0.587390    1.313430
     11          1           0       -0.211618   -1.348556    0.710326
     12          7           0       -4.116079    1.094667    0.345641
     13          8           0       -3.682245    1.896618    1.169837
     14          8           0       -5.212878    1.168270   -0.204133
     15          6           0        3.166614   -2.105115    1.004362
     16          6           0        3.891656   -1.792081   -0.150128
     17          6           0        3.865670   -0.496744   -0.675460
     18          6           0        3.100634    0.465304   -0.017834
     19          6           0        2.367503    0.184411    1.134082
     20          6           0        2.408188   -1.117610    1.641658
     21          1           0        3.192510   -3.113960    1.405555
     22          1           0        4.481529   -2.556971   -0.647158
     23          1           0        4.417484   -0.227061   -1.567755
     24          1           0        1.788647    0.968162    1.607450
     25          1           0        1.844116   -1.357850    2.538404
     26          7           0        3.065342    1.840158   -0.564580
     27          8           0        2.383611    2.669765    0.033444
     28          8           0        3.720079    2.062129   -1.580791
 ---------------------------------------------------------------------

 SCF Done:  E(RHF) =  -868.336303640     A.U. after   16 cycles
 E2 =    -0.2601751806D+01 EUMP2 =    -0.87093805544574D+03

 The electronic state is 1-A.
 Alpha  occ. eigenvalues --  -20.61359 -20.61350 -20.60715 -20.60706 -15.86422
 Alpha  occ. eigenvalues --  -15.85768 -11.32073 -11.31215 -11.28730 -11.28652
 Alpha  occ. eigenvalues --  -11.28490 -11.27798 -11.27785 -11.27776 -11.27698
 Alpha  occ. eigenvalues --  -11.27555 -11.26826 -11.26728  -1.60428  -1.59786
 Alpha  occ. eigenvalues --   -1.39973  -1.39338  -1.20301  -1.19386  -1.09629
 Alpha  occ. eigenvalues --   -1.08771  -1.05759  -1.04802  -0.96408  -0.95598
 Alpha  occ. eigenvalues --   -0.87114  -0.86202  -0.83246  -0.82430  -0.78241
 Alpha  occ. eigenvalues --   -0.77462  -0.72631  -0.71987  -0.71758  -0.71367
 Alpha  occ. eigenvalues --   -0.71108  -0.70522  -0.65938  -0.65740  -0.65042
 Alpha  occ. eigenvalues --   -0.64835  -0.63077  -0.62167  -0.56202  -0.55348
 Alpha  occ. eigenvalues --   -0.54157  -0.53815  -0.53121  -0.52759  -0.49414
 Alpha  occ. eigenvalues --   -0.49372  -0.48751  -0.48738  -0.45315  -0.44726
 Alpha  occ. eigenvalues --   -0.38291  -0.37422  -0.37309  -0.36382
 Alpha virt. eigenvalues --    0.04282   0.05077   0.10163   0.11258   0.15612
 Alpha virt. eigenvalues --    0.16549   0.19936   0.21827   0.25489   0.26985
 Alpha virt. eigenvalues --    0.28107   0.28960   0.29807   0.31298   0.31682

 Mulliken charges:
               1
     1  C   -0.174363
     2  C   -0.217922
     3  C   -0.171014
     4  C    0.159801
     5  C   -0.173643
     6  C   -0.223712
     7  H    0.222897
     8  H    0.222947
     9  H    0.276059
    10  H    0.273410
    11  H    0.228929
    12  N    0.488193
    13  O   -0.459114
    14  O   -0.460247
    15  C   -0.172726
    16  C   -0.219018
    17  C   -0.169016
    18  C    0.161647
    19  C   -0.172083
    20  C   -0.233777
    21  H    0.228007
    22  H    0.226437
    23  H    0.279243
    24  H    0.278823
    25  H    0.226229
    26  N    0.487982
    27  O   -0.456233
    28  O   -0.457737
 Sum of Mulliken charges =  -0.00000

 Dipole moment (field-independent basis, Debye):
    X=              3.4358    Y=             -8.7277    Z=              0.5549  Tot=              9.3960
 Quadrupole moment (field-independent basis, Debye-Ang):
   XX=           -119.3863   YY=           -109.0968   ZZ=           -100.9311
   XY=             -1.7822   XZ=              9.9167   YZ=              3.5792

 Normal termination of Gaussian 16 at Thu May  6 19:37:14 2021.
