 Gaussian 16, Revision A.03,
 Gaussian 16:  EM64L-G16RevA.03 25-Dec-2016

 -------------
 #p 6-31g* mp2
 -------------

 ------------------------------------------------------
 Input file generated by CHIRIPA (05-May-2021 14:53:12)
 ------------------------------------------------------
 Symbolic Z-matrix:
 Charge =  0 Multiplicity = 1

                         Standard orientation:
 ---------------------------------------------------------------------
 Center     Atomic      Atomic             Coordinates (Angstroms)
 Number     Number       Type             X           Y           Z
 ---------------------------------------------------------------------
      1          6           0       -3.708758   -0.076004    0.524573
      2          6           0       -2.969822   -1.403580    0.352819
      3          6           0       -1.678941   -1.471577    1.169396
      4          1           0       -3.043457    0.747349    0.230619
      5          1           0       -3.938691    0.072653    1.588729
      6          1           0       -2.742572   -1.550345   -0.710870
      7          1           0       -3.637025   -2.223881    0.647034
      8          1           0       -1.891338   -1.350586    2.236565
      9          1           0       -0.991803   -0.673223    0.870945
     10          1           0       -1.166834   -2.429011    1.031823
     11          6           0       -5.001245    0.007149   -0.285544
     12          6           0       -5.740182    1.334725   -0.113789
     13          6           0       -7.031062    1.402722   -0.930366
     14          1           0       -4.771312   -0.141508   -1.349700
     15          1           0       -5.666547   -0.816204    0.008410
     16          1           0       -5.072978    2.155025   -0.408005
     17          1           0       -5.967431    1.481490    0.949899
     18          1           0       -7.718201    0.604368   -0.631916
     19          1           0       -6.818666    1.281731   -1.997535
     20          1           0       -7.543170    2.360156   -0.792794
     21          6           0        4.744307    2.139017    0.229135
     22          6           0        3.810323    1.748829    1.194511
     23          6           0        3.061197    0.580475    1.026267
     24          6           0        3.272609   -0.177295   -0.124550
     25          6           0        4.195671    0.185002   -1.104340
     26          6           0        4.933666    1.357236   -0.915191
     27          1           0        5.321923    3.048130    0.367950
     28          1           0        3.661160    2.354015    2.084198
     29          1           0        2.331529    0.255060    1.757777
     30          1           0        4.322192   -0.438877   -1.980801
     31          1           0        5.658317    1.657814   -1.666575
     32          7           0        2.485435   -1.416234   -0.313727
     33          8           0        2.690407   -2.066438   -1.336398
     34          8           0        1.678379   -1.713649    0.564250
 ---------------------------------------------------------------------

 SCF Done:  E(RHF) =  -669.535494830     A.U. after   15 cycles
 E2 =    -0.2091155482D+01 EUMP2 =    -0.67162665031216D+03

 The electronic state is 1-A.
 Alpha  occ. eigenvalues --  -20.60880 -20.60854 -15.85896 -11.31252 -11.27819
 Alpha  occ. eigenvalues --  -11.27813 -11.27561 -11.26833 -11.26823 -11.21234
 Alpha  occ. eigenvalues --  -11.20874 -11.20768 -11.20733 -11.20618 -11.19672
 Alpha  occ. eigenvalues --   -1.59935  -1.39490  -1.19424  -1.08824  -1.07810
 Alpha  occ. eigenvalues --   -1.04824  -1.02813  -0.95670  -0.95228  -0.86258
 Alpha  occ. eigenvalues --   -0.86216  -0.82493  -0.78909  -0.77631  -0.77510
 Alpha  occ. eigenvalues --   -0.72126  -0.71254  -0.70531  -0.65080  -0.64827
 Alpha  occ. eigenvalues --   -0.64452  -0.62170  -0.60219  -0.58647  -0.56836
 Alpha  occ. eigenvalues --   -0.55327  -0.54542  -0.53156  -0.52916  -0.51866
 Alpha  occ. eigenvalues --   -0.51679  -0.49240  -0.48889  -0.48852  -0.47202
 Alpha  occ. eigenvalues --   -0.46003  -0.45194  -0.45098  -0.44730  -0.43026
 Alpha  occ. eigenvalues --   -0.37405  -0.36427
 Alpha virt. eigenvalues --    0.04970   0.11220   0.16448   0.21311   0.23429
 Alpha virt. eigenvalues --    0.25039   0.26982   0.27305   0.27844   0.28125
 Alpha virt. eigenvalues --    0.29018   0.30759   0.31791   0.32276   0.32766

 Mulliken charges:
               1
     1  C   -0.297096
     2  C   -0.301330
     3  C   -0.471425
     4  H    0.146251
     5  H    0.146810
     6  H    0.152684
     7  H    0.148681
     8  H    0.144617
     9  H    0.154024
    10  H    0.177069
    11  C   -0.297596
    12  C   -0.298915
    13  C   -0.475314
    14  H    0.149336
    15  H    0.149180
    16  H    0.150210
    17  H    0.150724
    18  H    0.155029
    19  H    0.154915
    20  H    0.158481
    21  C   -0.170716
    22  C   -0.218548
    23  C   -0.171658
    24  C    0.157870
    25  C   -0.170853
    26  C   -0.218575
    27  H    0.225835
    28  H    0.223830
    29  H    0.276688
    30  H    0.275721
    31  H    0.223646
    32  N    0.489795
    33  O   -0.460157
    34  O   -0.459211
 Sum of Mulliken charges =  -0.00000

 Dipole moment (field-independent basis, Debye):
    X=              3.0397    Y=              4.2551    Z=              0.6469  Tot=              5.2691
 Quadrupole moment (field-independent basis, Debye-Ang):
   XX=            -77.7420   YY=            -96.5647   ZZ=            -91.1360
   XY=             14.2569   XZ=             -1.3069   YZ=             -0.0266

 Normal termination of Gaussian 16 at Thu May  6 16:59:39 2021.
