 Gaussian 16, Revision A.03,
 Gaussian 16:  EM64L-G16RevA.03 25-Dec-2016

 -------------
 #p 6-31g* mp2
 -------------

 ------------------------------------------------------
 Input file generated by CHIRIPA (05-May-2021 14:55:21)
 ------------------------------------------------------
 Symbolic Z-matrix:
 Charge =  0 Multiplicity = 1

                         Standard orientation:
 ---------------------------------------------------------------------
 Center     Atomic      Atomic             Coordinates (Angstroms)
 Number     Number       Type             X           Y           Z
 ---------------------------------------------------------------------
      1          6           0       -2.765139    1.955985    1.201215
      2          6           0       -3.691735    0.937196    1.446185
      3          6           0       -3.563881   -0.305037    0.817647
      4          6           0       -2.492559   -0.494891   -0.053853
      5          6           0       -1.553044    0.500391   -0.318458
      6          6           0       -1.700628    1.734721    0.321227
      7          1           0       -2.872122    2.917912    1.693807
      8          1           0       -4.519440    1.106202    2.129109
      9          1           0       -4.266816   -1.111188    0.989175
     10          1           0       -0.738397    0.302099   -1.004351
     11          1           0       -0.979512    2.524099    0.129080
     12          7           0       -2.346762   -1.805804   -0.725158
     13          8           0       -1.394102   -1.947891   -1.488629
     14          8           0       -3.187907   -2.666388   -0.475145
     15          6           0        3.515174    0.012795    0.542630
     16          6           0        4.439731   -1.155899    0.200083
     17          6           0        5.019965   -1.834159    1.441486
     18          1           0        4.071202    0.749429    1.138574
     19          1           0        2.696710   -0.350677    1.179340
     20          1           0        5.255443   -0.790600   -0.436929
     21          1           0        3.881492   -1.889745   -0.395277
     22          1           0        4.218715   -2.225615    2.076594
     23          1           0        5.600474   -1.120225    2.034705
     24          1           0        5.677897   -2.666741    1.173542
     25          6           0        2.927289    0.701027   -0.688002
     26          6           0        2.002734    1.869721   -0.345455
     27          6           0        1.422499    2.547981   -1.586858
     28          1           0        3.745754    1.064499   -1.324711
     29          1           0        2.371263   -0.035607   -1.283946
     30          1           0        2.560973    2.603568    0.249906
     31          1           0        1.187020    1.504423    0.291559
     32          1           0        0.841991    1.834047   -2.180076
     33          1           0        2.223749    2.939436   -2.221965
     34          1           0        0.764567    3.380563   -1.318913
 ---------------------------------------------------------------------

 SCF Done:  E(RHF) =  -669.533952063     A.U. after   15 cycles
 E2 =    -0.2093975137D+01 EUMP2 =    -0.67162792719996D+03

 The electronic state is 1-A.
 Alpha  occ. eigenvalues --  -20.60788 -20.60782 -15.85837 -11.31172 -11.27740
 Alpha  occ. eigenvalues --  -11.27703 -11.27458 -11.26755 -11.26660 -11.22314
 Alpha  occ. eigenvalues --  -11.22066 -11.21757 -11.21616 -11.21547 -11.21041
 Alpha  occ. eigenvalues --   -1.59861  -1.39416  -1.19344  -1.08815  -1.08730
 Alpha  occ. eigenvalues --   -1.04776  -1.03936  -0.96415  -0.95581  -0.87424
 Alpha  occ. eigenvalues --   -0.86140  -0.82429  -0.80041  -0.78531  -0.77480
 Alpha  occ. eigenvalues --   -0.72059  -0.71184  -0.70476  -0.65543  -0.64953
 Alpha  occ. eigenvalues --   -0.64801  -0.62418  -0.61012  -0.59791  -0.57983
 Alpha  occ. eigenvalues --   -0.55695  -0.55175  -0.53216  -0.53098  -0.52987
 Alpha  occ. eigenvalues --   -0.52538  -0.50350  -0.48814  -0.48809  -0.48333
 Alpha  occ. eigenvalues --   -0.47066  -0.46075  -0.45947  -0.44827  -0.44168
 Alpha  occ. eigenvalues --   -0.37323  -0.36289
 Alpha virt. eigenvalues --    0.05022   0.11285   0.16408   0.19594   0.22829
 Alpha virt. eigenvalues --    0.24006   0.25301   0.26383   0.27171   0.28209
 Alpha virt. eigenvalues --    0.29316   0.30623   0.31397   0.31860   0.32816

 Mulliken charges:
               1
     1  C   -0.172669
     2  C   -0.218674
     3  C   -0.170881
     4  C    0.158534
     5  C   -0.177405
     6  C   -0.223331
     7  H    0.225900
     8  H    0.223344
     9  H    0.275439
    10  H    0.281268
    11  H    0.233385
    12  N    0.488181
    13  O   -0.461440
    14  O   -0.460224
    15  C   -0.298528
    16  C   -0.301184
    17  C   -0.476092
    18  H    0.148508
    19  H    0.151354
    20  H    0.151548
    21  H    0.157849
    22  H    0.156514
    23  H    0.153756
    24  H    0.161738
    25  C   -0.300663
    26  C   -0.312592
    27  C   -0.485489
    28  H    0.151669
    29  H    0.156639
    30  H    0.155226
    31  H    0.151985
    32  H    0.157354
    33  H    0.165452
    34  H    0.153527
 Sum of Mulliken charges =  -0.00000

 Dipole moment (field-independent basis, Debye):
    X=             -0.3680    Y=              4.5508    Z=              2.3291  Tot=              5.1254
 Quadrupole moment (field-independent basis, Debye-Ang):
   XX=            -88.1888   YY=            -99.3526   ZZ=            -95.1151
   XY=             -9.1274   XZ=             -8.8422   YZ=             -1.8480

 Normal termination of Gaussian 16 at Wed May  5 15:56:52 2021.
