 Gaussian 16, Revision A.03,
 Gaussian 16:  EM64L-G16RevA.03 25-Dec-2016

 -------------
 #p 6-31g* mp2
 -------------

 ------------------------------------------------------
 Input file generated by CHIRIPA (05-May-2021 14:51:11)
 ------------------------------------------------------
 Symbolic Z-matrix:
 Charge =  0 Multiplicity = 1

                         Standard orientation:
 ---------------------------------------------------------------------
 Center     Atomic      Atomic             Coordinates (Angstroms)
 Number     Number       Type             X           Y           Z
 ---------------------------------------------------------------------
      1          6           0       -3.107683   -0.376944   -0.440606
      2          6           0       -4.076586   -1.550334   -0.291051
      3          6           0       -3.479865   -2.874349   -0.769281
      4          1           0       -2.810217   -0.287334   -1.494375
      5          1           0       -2.191096   -0.592870    0.125643
      6          1           0       -4.991631   -1.331654   -0.856284
      7          1           0       -4.371929   -1.637042    0.762453
      8          1           0       -2.578351   -3.119135   -0.198356
      9          1           0       -3.201574   -2.812011   -1.826290
     10          1           0       -4.189359   -3.699599   -0.653355
     11          6           0       -3.689821    0.953578    0.033268
     12          6           0       -2.720918    2.126968   -0.116287
     13          6           0       -3.317639    3.450982    0.361943
     14          1           0       -4.606408    1.169504   -0.532981
     15          1           0       -3.987287    0.863968    1.087037
     16          1           0       -2.425575    2.213676   -1.169790
     17          1           0       -1.805873    1.908287    0.448946
     18          1           0       -3.595930    3.388645    1.418953
     19          1           0       -4.219153    3.695769   -0.208981
     20          1           0       -2.608145    4.276233    0.246018
     21          6           0        2.645692   -0.384110    0.119076
     22          6           0        1.999914   -1.157871    1.268968
     23          6           0        0.493134   -1.341409    1.085333
     24          1           0        2.163238    0.598910    0.030464
     25          1           0        2.452119   -0.913463   -0.824169
     26          1           0        2.195827   -0.627947    2.209932
     27          1           0        2.484092   -2.139090    1.354976
     28          1           0        0.281597   -1.890005    0.161810
     29          1           0       -0.008306   -0.370275    1.021624
     30          1           0        0.051876   -1.897047    1.918650
     31          6           0        4.151813   -0.192523    0.288262
     32          6           0        4.797590    0.581237   -0.861630
     33          6           0        6.304370    0.764776   -0.677996
     34          1           0        4.345385    0.336828    1.231506
     35          1           0        4.634267   -1.175544    0.376874
     36          1           0        4.313412    1.562456   -0.947639
     37          1           0        4.601677    0.051313   -1.802595
     38          1           0        6.805811   -0.206358   -0.614287
     39          1           0        6.515908    1.313371    0.245527
     40          1           0        6.745628    1.320414   -1.511313
 ---------------------------------------------------------------------

 SCF Done:  E(RHF) =  -470.732890809     A.U. after   11 cycles
 E2 =    -0.1583303958D+01 EUMP2 =    -0.47231619476636D+03

 The electronic state is 1-A.
 Alpha  occ. eigenvalues --  -11.21648 -11.21613 -11.21595 -11.21506 -11.21427
 Alpha  occ. eigenvalues --  -11.21367 -11.21316 -11.21182 -11.21149 -11.21081
 Alpha  occ. eigenvalues --  -11.21064 -11.20995  -1.08461  -1.08351  -1.03571
 Alpha  occ. eigenvalues --   -1.03471  -0.96034  -0.95910  -0.87062  -0.86926
 Alpha  occ. eigenvalues --   -0.79677  -0.79520  -0.78308  -0.78109  -0.65106
 Alpha  occ. eigenvalues --   -0.64980  -0.60976  -0.60867  -0.59389  -0.59285
 Alpha  occ. eigenvalues --   -0.57675  -0.57501  -0.55382  -0.55142  -0.52741
 Alpha  occ. eigenvalues --   -0.52637  -0.52514  -0.52285  -0.50017  -0.49814
 Alpha  occ. eigenvalues --   -0.48057  -0.47825  -0.46700  -0.46555  -0.45979
 Alpha  occ. eigenvalues --   -0.45734  -0.45678  -0.45287  -0.43812  -0.43712
 Alpha virt. eigenvalues --    0.21381   0.22961   0.23556   0.24147   0.25399
 Alpha virt. eigenvalues --    0.26536   0.27106   0.27557   0.27756   0.29468
 Alpha virt. eigenvalues --    0.30024   0.31436   0.31792   0.31967   0.32269

 Mulliken charges:
               1
     1  C   -0.309592
     2  C   -0.298610
     3  C   -0.477382
     4  H    0.148324
     5  H    0.164843
     6  H    0.151240
     7  H    0.151345
     8  H    0.156976
     9  H    0.154603
    10  H    0.159766
    11  C   -0.297597
    12  C   -0.301424
    13  C   -0.475610
    14  H    0.149161
    15  H    0.149123
    16  H    0.152162
    17  H    0.151977
    18  H    0.155150
    19  H    0.155443
    20  H    0.159917
    21  C   -0.298424
    22  C   -0.300265
    23  C   -0.481007
    24  H    0.149896
    25  H    0.149889
    26  H    0.151947
    27  H    0.152195
    28  H    0.157734
    29  H    0.157909
    30  H    0.160059
    31  C   -0.298338
    32  C   -0.299671
    33  C   -0.475726
    34  H    0.149513
    35  H    0.149712
    36  H    0.152043
    37  H    0.152015
    38  H    0.155198
    39  H    0.155185
    40  H    0.160317
 Sum of Mulliken charges =  -0.00000

 Dipole moment (field-independent basis, Debye):
    X=              0.0515    Y=             -0.0103    Z=              0.0093  Tot=              0.0534
 Quadrupole moment (field-independent basis, Debye-Ang):
   XX=            -86.1283   YY=            -85.1468   ZZ=            -83.7662
   XY=             -0.1809   XZ=              0.2924   YZ=             -0.0598

 Normal termination of Gaussian 16 at Thu May  6 00:39:31 2021.
