 Gaussian 16, Revision A.03,
 Gaussian 16:  EM64L-G16RevA.03 25-Dec-2016

 -------------
 #p 6-31g* mp2
 -------------

 ------------------------------------------------------
 Input file generated by CHIRIPA (05-May-2021 14:53:14)
 ------------------------------------------------------
 Symbolic Z-matrix:
 Charge =  0 Multiplicity = 1

                         Standard orientation:
 ---------------------------------------------------------------------
 Center     Atomic      Atomic             Coordinates (Angstroms)
 Number     Number       Type             X           Y           Z
 ---------------------------------------------------------------------
      1          6           0       -3.106281   -0.367863    0.042328
      2          6           0       -4.088402   -1.532260    0.175002
      3          6           0       -3.387764   -2.877574    0.367431
      4          1           0       -2.434707   -0.557810   -0.806115
      5          1           0       -2.472929   -0.327485    0.939340
      6          1           0       -4.720637   -1.569579   -0.721381
      7          1           0       -4.757839   -1.339428    1.023110
      8          1           0       -2.770821   -2.864749    1.271764
      9          1           0       -2.733407   -3.096208   -0.482638
     10          1           0       -4.108528   -3.695978    0.460033
     11          6           0       -3.791614    0.983737   -0.150604
     12          6           0       -2.809493    2.148134   -0.283279
     13          6           0       -3.510131    3.493449   -0.475708
     14          1           0       -4.424965    0.943359   -1.047616
     15          1           0       -4.463187    1.173684    0.697838
     16          1           0       -2.140056    1.955303   -1.131386
     17          1           0       -2.177258    2.185453    0.613104
     18          1           0       -4.164488    3.712082    0.374361
     19          1           0       -4.127074    3.480624   -1.380041
     20          1           0       -2.789367    4.311852   -0.568309
     21          6           0        0.682843   -1.758603   -0.079330
     22          6           0        0.704382   -0.696608    0.830738
     23          6           0        1.813689    0.150859    0.906812
     24          6           0        2.888969   -0.093818    0.054054
     25          6           0        2.897463   -1.143512   -0.863203
     26          6           0        1.777522   -1.978279   -0.921911
     27          1           0       -0.183023   -2.412003   -0.131681
     28          1           0       -0.144338   -0.523618    1.486324
     29          1           0        1.856795    0.980430    1.602062
     30          1           0        3.758494   -1.290805   -1.503787
     31          1           0        1.763565   -2.802262   -1.629655
     32          7           0        4.068971    0.796633    0.125398
     33          8           0        5.003642    0.559837   -0.636805
     34          8           0        4.036842    1.714505    0.942169
 ---------------------------------------------------------------------

 SCF Done:  E(RHF) =  -669.535099259     A.U. after   15 cycles
 E2 =    -0.2092752804D+01 EUMP2 =    -0.67162785206284D+03

 The electronic state is 1-A.
 Alpha  occ. eigenvalues --  -20.60695 -20.60690 -15.85747 -11.31088 -11.27659
 Alpha  occ. eigenvalues --  -11.27644 -11.27335 -11.26663 -11.26619 -11.22639
 Alpha  occ. eigenvalues --  -11.22460 -11.22369 -11.22217 -11.22134 -11.21508
 Alpha  occ. eigenvalues --   -1.59771  -1.39325  -1.19255  -1.09340  -1.08644
 Alpha  occ. eigenvalues --   -1.04657  -1.04387  -0.96862  -0.95489  -0.87878
 Alpha  occ. eigenvalues --   -0.86057  -0.82326  -0.80478  -0.79147  -0.77375
 Alpha  occ. eigenvalues --   -0.71966  -0.71094  -0.70349  -0.65987  -0.64902
 Alpha  occ. eigenvalues --   -0.64660  -0.62025  -0.61770  -0.60244  -0.58472
 Alpha  occ. eigenvalues --   -0.56169  -0.55151  -0.53522  -0.53301  -0.52967
 Alpha  occ. eigenvalues --   -0.52746  -0.50806  -0.48772  -0.48727  -0.48718
 Alpha  occ. eigenvalues --   -0.47500  -0.46642  -0.46550  -0.44737  -0.44638
 Alpha  occ. eigenvalues --   -0.37206  -0.36253
 Alpha virt. eigenvalues --    0.05135   0.11343   0.16561   0.19260   0.22497
 Alpha virt. eigenvalues --    0.23270   0.24293   0.25920   0.26643   0.28730
 Alpha virt. eigenvalues --    0.29764   0.30310   0.30870   0.31298   0.32003

 Mulliken charges:
               1
     1  C   -0.303110
     2  C   -0.299219
     3  C   -0.480939
     4  H    0.151771
     5  H    0.142178
     6  H    0.156384
     7  H    0.155868
     8  H    0.151924
     9  H    0.150574
    10  H    0.167719
    11  C   -0.298692
    12  C   -0.299804
    13  C   -0.476504
    14  H    0.152472
    15  H    0.151460
    16  H    0.155247
    17  H    0.148411
    18  H    0.155783
    19  H    0.156395
    20  H    0.163908
    21  C   -0.176781
    22  C   -0.219571
    23  C   -0.172073
    24  C    0.158356
    25  C   -0.170992
    26  C   -0.220469
    27  H    0.233880
    28  H    0.226249
    29  H    0.275058
    30  H    0.275068
    31  H    0.222994
    32  N    0.488020
    33  O   -0.460806
    34  O   -0.460758
 Sum of Mulliken charges =  -0.00000

 Dipole moment (field-independent basis, Debye):
    X=             -4.4230    Y=             -3.0681    Z=             -0.3140  Tot=              5.3921
 Quadrupole moment (field-independent basis, Debye-Ang):
   XX=           -117.7216   YY=            -94.0538   ZZ=            -91.5909
   XY=             -9.6865   XZ=             -2.7536   YZ=              2.3073

 Normal termination of Gaussian 16 at Thu May  6 12:07:38 2021.
