 Gaussian 16, Revision A.03,
 Gaussian 16:  EM64L-G16RevA.03 25-Dec-2016

 -------------
 #p 6-31g* mp2
 -------------

 ------------------------------------------------------
 Input file generated by CHIRIPA (05-May-2021 14:55:20)
 ------------------------------------------------------
 Symbolic Z-matrix:
 Charge =  0 Multiplicity = 1

                         Standard orientation:
 ---------------------------------------------------------------------
 Center     Atomic      Atomic             Coordinates (Angstroms)
 Number     Number       Type             X           Y           Z
 ---------------------------------------------------------------------
      1          6           0       -3.864998    1.421619    0.919626
      2          6           0       -2.757215    0.991406    1.657362
      3          6           0       -1.941398   -0.037900    1.178280
      4          6           0       -2.264071   -0.617320   -0.047871
      5          6           0       -3.360881   -0.210798   -0.806183
      6          6           0       -4.162770    0.820204   -0.307629
      7          1           0       -4.493334    2.221868    1.299351
      8          1           0       -2.523557    1.456642    2.610779
      9          1           0       -1.077701   -0.390467    1.728864
     10          1           0       -3.568470   -0.693851   -1.753276
     11          1           0       -5.022450    1.152269   -0.882718
     12          7           0       -1.407774   -1.707898   -0.565361
     13          8           0       -1.713437   -2.202089   -1.648404
     14          8           0       -0.447161   -2.047852    0.121873
     15          6           0        2.546840    1.037458   -0.317594
     16          6           0        3.000840    2.497267   -0.346337
     17          6           0        1.926045    3.440045   -0.888351
     18          1           0        2.263882    0.728044   -1.333045
     19          1           0        1.640651    0.954626    0.298324
     20          1           0        3.906695    2.577097   -0.960886
     21          1           0        3.282932    2.803184    0.669268
     22          1           0        1.022974    3.389945   -0.271463
     23          1           0        1.650281    3.162572   -1.910880
     24          1           0        2.271697    4.478432   -0.900107
     25          6           0        3.610468    0.082746    0.221803
     26          6           0        3.156469   -1.377064    0.250548
     27          6           0        4.231263   -2.319841    0.792563
     28          1           0        4.516658    0.165578   -0.394113
     29          1           0        3.893426    0.392159    1.237256
     30          1           0        2.874376   -1.682981   -0.765058
     31          1           0        2.250613   -1.456893    0.865096
     32          1           0        4.507028   -2.042367    1.815090
     33          1           0        5.134335   -2.269740    0.175674
     34          1           0        3.885611   -3.358227    0.804317
 ---------------------------------------------------------------------

 SCF Done:  E(RHF) =  -669.535902399     A.U. after   15 cycles
 E2 =    -0.2091784904D+01 EUMP2 =    -0.67162768730226D+03

 The electronic state is 1-A.
 Alpha  occ. eigenvalues --  -20.60885 -20.60870 -15.85914 -11.31267 -11.27842
 Alpha  occ. eigenvalues --  -11.27823 -11.27568 -11.26850 -11.26837 -11.21328
 Alpha  occ. eigenvalues --  -11.20952 -11.20920 -11.20695 -11.20401 -11.20156
 Alpha  occ. eigenvalues --   -1.59940  -1.39496  -1.19435  -1.08832  -1.07834
 Alpha  occ. eigenvalues --   -1.04838  -1.02901  -0.95672  -0.95415  -0.86438
 Alpha  occ. eigenvalues --   -0.86236  -0.82511  -0.78990  -0.77666  -0.77448
 Alpha  occ. eigenvalues --   -0.72138  -0.71251  -0.70544  -0.65094  -0.64844
 Alpha  occ. eigenvalues --   -0.64478  -0.62188  -0.60306  -0.58799  -0.56974
 Alpha  occ. eigenvalues --   -0.55339  -0.54734  -0.53163  -0.52931  -0.52112
 Alpha  occ. eigenvalues --   -0.51824  -0.49394  -0.48903  -0.48900  -0.47290
 Alpha  occ. eigenvalues --   -0.46041  -0.45333  -0.45029  -0.44612  -0.43170
 Alpha  occ. eigenvalues --   -0.37409  -0.36437
 Alpha virt. eigenvalues --    0.04954   0.11167   0.16445   0.21048   0.23199
 Alpha virt. eigenvalues --    0.24847   0.25940   0.27508   0.27659   0.28433
 Alpha virt. eigenvalues --    0.29032   0.30980   0.31808   0.32125   0.32676

 Mulliken charges:
               1
     1  C   -0.170608
     2  C   -0.218646
     3  C   -0.171077
     4  C    0.158821
     5  C   -0.170824
     6  C   -0.218278
     7  H    0.225971
     8  H    0.223687
     9  H    0.275199
    10  H    0.275800
    11  H    0.223815
    12  N    0.491638
    13  O   -0.459788
    14  O   -0.462504
    15  C   -0.295991
    16  C   -0.299074
    17  C   -0.474915
    18  H    0.152396
    19  H    0.143996
    20  H    0.152358
    21  H    0.149315
    22  H    0.151214
    23  H    0.155983
    24  H    0.158482
    25  C   -0.299053
    26  C   -0.301589
    27  C   -0.476321
    28  H    0.147071
    29  H    0.144428
    30  H    0.158170
    31  H    0.166267
    32  H    0.149444
    33  H    0.151021
    34  H    0.163594
 Sum of Mulliken charges =  -0.00000

 Dipole moment (field-independent basis, Debye):
    X=             -3.2036    Y=              3.6863    Z=              1.7550  Tot=              5.1897
 Quadrupole moment (field-independent basis, Debye-Ang):
   XX=            -80.8734   YY=           -101.0860   ZZ=            -91.1615
   XY=             -6.5527   XZ=             -2.1479   YZ=             -0.4288

 Normal termination of Gaussian 16 at Thu May  6 17:27:27 2021.
