 Gaussian 16, Revision A.03,
 Gaussian 16:  EM64L-G16RevA.03 25-Dec-2016

 -------------
 #p 6-31g* mp2
 -------------

 ------------------------------------------------------
 Input file generated by CHIRIPA (05-May-2021 14:57:27)
 ------------------------------------------------------
 Symbolic Z-matrix:
 Charge =  0 Multiplicity = 1

                         Standard orientation:
 ---------------------------------------------------------------------
 Center     Atomic      Atomic             Coordinates (Angstroms)
 Number     Number       Type             X           Y           Z
 ---------------------------------------------------------------------
      1          6           0       -2.677663    1.969891    1.640073
      2          6           0       -1.870442    0.839298    1.476742
      3          6           0       -2.251671   -0.185439    0.605463
      4          6           0       -3.451885   -0.046156   -0.089790
      5          6           0       -4.277719    1.067999    0.051443
      6          6           0       -3.876611    2.080438    0.928158
      7          1           0       -2.373794    2.761155    2.319014
      8          1           0       -0.938799    0.750751    2.028325
      9          1           0       -1.645790   -1.071543    0.460048
     10          1           0       -5.200900    1.127867   -0.512092
     11          1           0       -4.505505    2.957335    1.053014
     12          7           0       -3.865997   -1.124490   -1.015050
     13          8           0       -4.928054   -0.977803   -1.616012
     14          8           0       -3.120680   -2.095956   -1.121788
     15          6           0        4.397671    1.775408   -1.366968
     16          6           0        5.220089    0.912215   -0.635498
     17          6           0        4.669163   -0.147722    0.090838
     18          6           0        3.285601   -0.315925    0.063387
     19          6           0        2.439787    0.527147   -0.655722
     20          6           0        3.012587    1.580462   -1.374732
     21          1           0        4.834139    2.596220   -1.928358
     22          1           0        6.296092    1.061204   -0.627645
     23          1           0        5.282540   -0.830931    0.665654
     24          1           0        1.370650    0.353265   -0.644334
     25          1           0        2.371444    2.249262   -1.941907
     26          7           0        2.690782   -1.434528    0.828448
     27          8           0        1.468926   -1.561303    0.788042
     28          8           0        3.457682   -2.163333    1.454024
 ---------------------------------------------------------------------

 SCF Done:  E(RHF) =  -868.339402150     A.U. after   16 cycles
 E2 =    -0.2599183635D+01 EUMP2 =    -0.87093858578468D+03

 The electronic state is 1-A.
 Alpha  occ. eigenvalues --  -20.61400 -20.61347 -20.60384 -20.60357 -15.86420
 Alpha  occ. eigenvalues --  -15.85424 -11.31629 -11.30786 -11.28187 -11.28164
 Alpha  occ. eigenvalues --  -11.27884 -11.27432 -11.27214 -11.27167 -11.27157
 Alpha  occ. eigenvalues --  -11.27146 -11.26460 -11.26312  -1.60433  -1.59453
 Alpha  occ. eigenvalues --   -1.39996  -1.39002  -1.19786  -1.18981  -1.09206
 Alpha  occ. eigenvalues --   -1.08391  -1.05165  -1.04357  -0.96067  -0.95209
 Alpha  occ. eigenvalues --   -0.86571  -0.85763  -0.82910  -0.82019  -0.77981
 Alpha  occ. eigenvalues --   -0.77047  -0.72648  -0.71744  -0.71637  -0.70891
 Alpha  occ. eigenvalues --   -0.70784  -0.70075  -0.65442  -0.65162  -0.64619
 Alpha  occ. eigenvalues --   -0.64342  -0.62517  -0.61651  -0.55666  -0.54899
 Alpha  occ. eigenvalues --   -0.53504  -0.53255  -0.52733  -0.52417  -0.49401
 Alpha  occ. eigenvalues --   -0.49363  -0.48410  -0.48384  -0.45430  -0.44407
 Alpha  occ. eigenvalues --   -0.37757  -0.37012  -0.36763  -0.35985
 Alpha virt. eigenvalues --    0.04540   0.05417   0.10882   0.11659   0.16063
 Alpha virt. eigenvalues --    0.16840   0.20794   0.21915   0.26364   0.27279
 Alpha virt. eigenvalues --    0.28247   0.28953   0.30843   0.31375   0.32258

 Mulliken charges:
               1
     1  C   -0.172016
     2  C   -0.225781
     3  C   -0.180216
     4  C    0.157625
     5  C   -0.171711
     6  C   -0.219635
     7  H    0.223365
     8  H    0.230139
     9  H    0.294772
    10  H    0.274034
    11  H    0.221210
    12  N    0.487296
    13  O   -0.463434
    14  O   -0.456407
    15  C   -0.170329
    16  C   -0.218485
    17  C   -0.170604
    18  C    0.158065
    19  C   -0.172382
    20  C   -0.218772
    21  H    0.227130
    22  H    0.224953
    23  H    0.276568
    24  H    0.273856
    25  H    0.225330
    26  N    0.492268
    27  O   -0.471379
    28  O   -0.455462
 Sum of Mulliken charges =  -0.00000

 Dipole moment (field-independent basis, Debye):
    X=              3.8744    Y=              7.6179    Z=              0.5646  Tot=              8.5651
 Quadrupole moment (field-independent basis, Debye-Ang):
   XX=            -93.7210   YY=           -107.1037   ZZ=           -106.4147
   XY=             -4.3443   XZ=            -17.7785   YZ=             -0.7917

 Normal termination of Gaussian 16 at Thu May  6 18:10:07 2021.
