 Gaussian 16, Revision A.03,
 Gaussian 16:  EM64L-G16RevA.03 25-Dec-2016

 -------------
 #p 6-31g* mp2
 -------------

 ------------------------------------------------------
 Input file generated by CHIRIPA (05-May-2021 14:51:08)
 ------------------------------------------------------
 Symbolic Z-matrix:
 Charge =  0 Multiplicity = 1

                         Standard orientation:
 ---------------------------------------------------------------------
 Center     Atomic      Atomic             Coordinates (Angstroms)
 Number     Number       Type             X           Y           Z
 ---------------------------------------------------------------------
      1          6           0        5.059570    0.006056   -0.185097
      2          6           0        5.965507   -1.097945    0.361205
      3          6           0        7.443524   -0.856226    0.053254
      4          1           0        5.201250    0.083651   -1.271766
      5          1           0        5.370799    0.970184    0.240329
      6          1           0        5.651783   -2.059894   -0.064055
      7          1           0        5.821512   -1.173050    1.446673
      8          1           0        7.778712    0.089380    0.491522
      9          1           0        7.608018   -0.802503   -1.027790
     10          1           0        8.073105   -1.657372    0.452819
     11          6           0        3.579014   -0.221434    0.114786
     12          6           0        2.673076    0.882567   -0.431515
     13          6           0        1.195060    0.640848   -0.123564
     14          1           0        3.267784   -1.185562   -0.310640
     15          1           0        3.437333   -0.299029    1.201456
     16          1           0        2.817071    0.957672   -1.516983
     17          1           0        2.986800    1.844516   -0.006255
     18          1           0        1.030565    0.587125    0.957480
     19          1           0        0.859871   -0.304759   -0.561832
     20          1           0        0.565478    1.441994   -0.523129
     21          6           0       -3.864991    0.621964   -0.300349
     22          6           0       -3.465703    1.772785    0.623861
     23          6           0       -2.556817    2.793439   -0.061692
     24          1           0       -2.957672    0.120837   -0.664479
     25          1           0       -4.372770    1.030623   -1.184970
     26          1           0       -2.960056    1.361973    1.507135
     27          1           0       -4.374083    2.271110    0.985986
     28          1           0       -3.056388    3.230673   -0.932241
     29          1           0       -1.634327    2.316371   -0.408131
     30          1           0       -2.283607    3.607430    0.617008
     31          6           0       -4.773593   -0.406586    0.370660
     32          6           0       -5.172880   -1.557407   -0.553552
     33          6           0       -6.081767   -2.578060    0.132003
     34          1           0       -4.265813   -0.815244    1.255280
     35          1           0       -5.680911    0.094541    0.734789
     36          1           0       -4.264500   -2.055733   -0.915675
     37          1           0       -5.678527   -1.146595   -1.436824
     38          1           0       -7.004256   -2.100992    0.478442
     39          1           0       -5.582195   -3.015296    1.002551
     40          1           0       -6.354977   -3.392052   -0.546698
 ---------------------------------------------------------------------

 SCF Done:  E(RHF) =  -470.733308049     A.U. after   11 cycles
 E2 =    -0.1582299655D+01 EUMP2 =    -0.47231560770378D+03

 The electronic state is 1-A.
 Alpha  occ. eigenvalues --  -11.21639 -11.21618 -11.21570 -11.21543 -11.21430
 Alpha  occ. eigenvalues --  -11.21370 -11.21356 -11.21294 -11.21127 -11.21084
 Alpha  occ. eigenvalues --  -11.21047 -11.20995  -1.08457  -1.08381  -1.03564
 Alpha  occ. eigenvalues --   -1.03480  -0.96026  -0.95923  -0.87056  -0.86931
 Alpha  occ. eigenvalues --   -0.79642  -0.79531  -0.78268  -0.78193  -0.65086
 Alpha  occ. eigenvalues --   -0.65013  -0.60958  -0.60907  -0.59407  -0.59288
 Alpha  occ. eigenvalues --   -0.57675  -0.57504  -0.55310  -0.55224  -0.52787
 Alpha  occ. eigenvalues --   -0.52627  -0.52463  -0.52271  -0.49958  -0.49848
 Alpha  occ. eigenvalues --   -0.47969  -0.47833  -0.46653  -0.46575  -0.45812
 Alpha  occ. eigenvalues --   -0.45740  -0.45732  -0.45660  -0.43777  -0.43738
 Alpha virt. eigenvalues --    0.21895   0.22975   0.23592   0.24797   0.26200
 Alpha virt. eigenvalues --    0.26612   0.27049   0.27468   0.27805   0.28733
 Alpha virt. eigenvalues --    0.30078   0.31286   0.31708   0.31813   0.32066

 Mulliken charges:
               1
     1  C   -0.298268
     2  C   -0.299645
     3  C   -0.475719
     4  H    0.149734
     5  H    0.149637
     6  H    0.151927
     7  H    0.151953
     8  H    0.155232
     9  H    0.155221
    10  H    0.160299
    11  C   -0.298743
    12  C   -0.298997
    13  C   -0.481941
    14  H    0.149483
    15  H    0.149666
    16  H    0.152166
    17  H    0.152378
    18  H    0.155456
    19  H    0.154855
    20  H    0.166028
    21  C   -0.298786
    22  C   -0.298795
    23  C   -0.482651
    24  H    0.150606
    25  H    0.149174
    26  H    0.152128
    27  H    0.151545
    28  H    0.154726
    29  H    0.161921
    30  H    0.159826
    31  C   -0.298293
    32  C   -0.299610
    33  C   -0.475678
    34  H    0.149591
    35  H    0.149464
    36  H    0.151912
    37  H    0.151812
    38  H    0.155116
    39  H    0.155159
    40  H    0.160108
 Sum of Mulliken charges =  -0.00000

 Dipole moment (field-independent basis, Debye):
    X=              0.0354    Y=             -0.0024    Z=             -0.0012  Tot=              0.0355
 Quadrupole moment (field-independent basis, Debye-Ang):
   XX=            -85.8311   YY=            -84.9854   ZZ=            -84.0628
   XY=             -0.9197   XZ=              0.7283   YZ=              0.5956

 Normal termination of Gaussian 16 at Thu May  6 16:33:08 2021.
