 Gaussian 16, Revision A.03,
 Gaussian 16:  EM64L-G16RevA.03 25-Dec-2016

 -------------
 #p 6-31g* mp2
 -------------

 ------------------------------------------------------
 Input file generated by CHIRIPA (05-May-2021 14:57:23)
 ------------------------------------------------------
 Symbolic Z-matrix:
 Charge =  0 Multiplicity = 1

                         Standard orientation:
 ---------------------------------------------------------------------
 Center     Atomic      Atomic             Coordinates (Angstroms)
 Number     Number       Type             X           Y           Z
 ---------------------------------------------------------------------
      1          6           0        5.838409   -0.194917   -1.295793
      2          6           0        4.619210   -0.604996   -1.845256
      3          6           0        3.447599   -0.564120   -1.083544
      4          6           0        3.531960   -0.105527    0.230178
      5          6           0        4.731618    0.309840    0.806008
      6          6           0        5.890630    0.260389    0.025755
      7          1           0        6.743651   -0.230001   -1.894711
      8          1           0        4.575664   -0.959051   -2.871313
      9          1           0        2.490447   -0.875592   -1.483873
     10          1           0        4.743517    0.657947    1.831726
     11          1           0        6.836083    0.579490    0.455101
     12          7           0        2.298297   -0.057715    1.046383
     13          8           0        2.399221    0.350386    2.201331
     14          8           0        1.253787   -0.429246    0.515721
     15          6           0       -2.933152    2.498204   -0.283426
     16          6           0       -4.216241    2.154667   -0.721816
     17          6           0       -4.671198    0.836439   -0.622637
     18          6           0       -3.812829   -0.117146   -0.077505
     19          6           0       -2.529087    0.193938    0.368052
     20          6           0       -2.095147    1.518470    0.259153
     21          1           0       -2.587894    3.524684   -0.364245
     22          1           0       -4.869215    2.913455   -1.143610
     23          1           0       -5.659785    0.542962   -0.954278
     24          1           0       -1.901018   -0.584434    0.784086
     25          1           0       -1.098187    1.782382    0.600425
     26          7           0       -4.283347   -1.516032    0.032636
     27          8           0       -3.507832   -2.337588    0.516640
     28          8           0       -5.418743   -1.764434   -0.367124
 ---------------------------------------------------------------------

 SCF Done:  E(RHF) =  -868.340417832     A.U. after   16 cycles
 E2 =    -0.2598643959D+01 EUMP2 =    -0.87093906179037D+03

 The electronic state is 1-A.
 Alpha  occ. eigenvalues --  -20.61644 -20.61637 -20.59859 -20.59836 -15.86654
 Alpha  occ. eigenvalues --  -15.84894 -11.31736 -11.30088 -11.28272 -11.28257
 Alpha  occ. eigenvalues --  -11.27964 -11.27223 -11.27207 -11.26747 -11.26445
 Alpha  occ. eigenvalues --  -11.26437 -11.25771 -11.25478  -1.60701  -1.58931
 Alpha  occ. eigenvalues --   -1.40258  -1.38485  -1.19883  -1.18264  -1.09333
 Alpha  occ. eigenvalues --   -1.07717  -1.05239  -1.03603  -0.96212  -0.94564
 Alpha  occ. eigenvalues --   -0.86651  -0.85035  -0.83053  -0.81370  -0.78128
 Alpha  occ. eigenvalues --   -0.76421  -0.72885  -0.71999  -0.71118  -0.70984
 Alpha  occ. eigenvalues --   -0.70253  -0.69390  -0.65537  -0.65237  -0.63906
 Alpha  occ. eigenvalues --   -0.63599  -0.62585  -0.60911  -0.55752  -0.54195
 Alpha  occ. eigenvalues --   -0.53588  -0.53324  -0.52007  -0.51670  -0.49654
 Alpha  occ. eigenvalues --   -0.49616  -0.47881  -0.47859  -0.45714  -0.43926
 Alpha  occ. eigenvalues --   -0.37849  -0.36830  -0.36309  -0.35208
 Alpha virt. eigenvalues --    0.04362   0.06056   0.10829   0.12417   0.15909
 Alpha virt. eigenvalues --    0.17563   0.20995   0.22581   0.26943   0.27798
 Alpha virt. eigenvalues --    0.28618   0.29403   0.30629   0.32034   0.32143

 Mulliken charges:
               1
     1  C   -0.169766
     2  C   -0.218682
     3  C   -0.170668
     4  C    0.156906
     5  C   -0.170494
     6  C   -0.218709
     7  H    0.227667
     8  H    0.225830
     9  H    0.277323
    10  H    0.276118
    11  H    0.225108
    12  N    0.489848
    13  O   -0.457967
    14  O   -0.468673
    15  C   -0.172453
    16  C   -0.219683
    17  C   -0.172921
    18  C    0.156893
    19  C   -0.173382
    20  C   -0.221805
    21  H    0.220958
    22  H    0.218450
    23  H    0.271493
    24  H    0.291434
    25  H    0.233720
    26  N    0.487785
    27  O   -0.458875
    28  O   -0.465456
 Sum of Mulliken charges =  -0.00000

 Dipole moment (field-independent basis, Debye):
    X=              6.6186    Y=              4.6561    Z=             -3.1817  Tot=              8.6953
 Quadrupole moment (field-independent basis, Debye-Ang):
   XX=            -82.8378   YY=           -106.7409   ZZ=           -103.0992
   XY=            -20.1119   XZ=             -4.1412   YZ=              1.0894

 Normal termination of Gaussian 16 at Thu May  6 16:17:47 2021.
