 Gaussian 16, Revision A.03,
 Gaussian 16:  EM64L-G16RevA.03 25-Dec-2016

 -------------
 #p 6-31g* mp2
 -------------

 ------------------------------------------------------
 Input file generated by CHIRIPA (05-May-2021 14:51:08)
 ------------------------------------------------------
 Symbolic Z-matrix:
 Charge =  0 Multiplicity = 1

                         Standard orientation:
 ---------------------------------------------------------------------
 Center     Atomic      Atomic             Coordinates (Angstroms)
 Number     Number       Type             X           Y           Z
 ---------------------------------------------------------------------
      1          6           0       -2.753154    1.508394   -0.211714
      2          6           0       -1.523977    2.007097    0.548815
      3          6           0       -1.145774    3.443065    0.184462
      4          1           0       -2.560773    1.575744   -1.291250
      5          1           0       -3.600617    2.175956   -0.002999
      6          1           0       -0.679440    1.337997    0.339820
      7          1           0       -1.719235    1.938372    1.626668
      8          1           0       -1.970139    4.127463    0.409457
      9          1           0       -0.924436    3.523677   -0.884702
     10          1           0       -0.264539    3.779305    0.739644
     11          6           0       -3.143671    0.074420    0.141758
     12          6           0       -4.372848   -0.424283   -0.618771
     13          6           0       -4.751051   -1.860251   -0.254419
     14          1           0       -2.296208   -0.593143   -0.066957
     15          1           0       -3.336052    0.007070    1.221294
     16          1           0       -4.177590   -0.355558   -1.696624
     17          1           0       -5.217385    0.244816   -0.409777
     18          1           0       -4.972389   -1.940864    0.814745
     19          1           0       -3.926686   -2.544650   -0.479414
     20          1           0       -5.632286   -2.196492   -0.809601
     21          6           0        3.557372   -0.592746   -0.381115
     22          6           0        4.372028    0.542392    0.239998
     23          6           0        5.587041    0.928542   -0.604055
     24          1           0        4.205524   -1.469475   -0.515988
     25          1           0        3.226895   -0.291006   -1.384675
     26          1           0        4.699702    0.239138    1.242636
     27          1           0        3.721814    1.416459    0.373585
     28          1           0        5.275082    1.256620   -1.600873
     29          1           0        6.258527    0.072609   -0.726884
     30          1           0        6.155081    1.741745   -0.141570
     31          6           0        2.339453   -0.990067    0.451072
     32          6           0        1.524797   -2.125206   -0.170041
     33          6           0        0.309783   -2.511356    0.674011
     34          1           0        2.669930   -1.291808    1.454632
     35          1           0        1.691302   -0.113338    0.585945
     36          1           0        2.175011   -2.999273   -0.303628
     37          1           0        1.197123   -1.821951   -1.172680
     38          1           0       -0.361702   -1.655423    0.796841
     39          1           0        0.621743   -2.839433    1.670830
     40          1           0       -0.258256   -3.324559    0.211527
 ---------------------------------------------------------------------

 SCF Done:  E(RHF) =  -470.733197685     A.U. after   11 cycles
 E2 =    -0.1583489246D+01 EUMP2 =    -0.47231668693155D+03

 The electronic state is 1-A.
 Alpha  occ. eigenvalues --  -11.21672 -11.21624 -11.21610 -11.21604 -11.21428
 Alpha  occ. eigenvalues --  -11.21423 -11.21364 -11.21354 -11.21128 -11.21077
 Alpha  occ. eigenvalues --  -11.21055 -11.21048  -1.08473  -1.08436  -1.03557
 Alpha  occ. eigenvalues --   -1.03542  -0.96021  -0.95973  -0.87040  -0.86987
 Alpha  occ. eigenvalues --   -0.79627  -0.79608  -0.78341  -0.78196  -0.65222
 Alpha  occ. eigenvalues --   -0.64966  -0.60958  -0.60945  -0.59394  -0.59335
 Alpha  occ. eigenvalues --   -0.57676  -0.57550  -0.55424  -0.55161  -0.52703
 Alpha  occ. eigenvalues --   -0.52683  -0.52495  -0.52346  -0.50077  -0.49821
 Alpha  occ. eigenvalues --   -0.47954  -0.47927  -0.46777  -0.46665  -0.45996
 Alpha  occ. eigenvalues --   -0.45778  -0.45758  -0.45293  -0.43808  -0.43797
 Alpha virt. eigenvalues --    0.20064   0.23163   0.23884   0.23965   0.25821
 Alpha virt. eigenvalues --    0.26917   0.27035   0.27214   0.27788   0.29764
 Alpha virt. eigenvalues --    0.30704   0.31455   0.31692   0.31746   0.31923

 Mulliken charges:
               1
     1  C   -0.297711
     2  C   -0.305303
     3  C   -0.475585
     4  H    0.149347
     5  H    0.149873
     6  H    0.155317
     7  H    0.152569
     8  H    0.155724
     9  H    0.155094
    10  H    0.160287
    11  C   -0.305875
    12  C   -0.299091
    13  C   -0.475866
    14  H    0.157478
    15  H    0.149607
    16  H    0.151679
    17  H    0.151890
    18  H    0.155332
    19  H    0.155701
    20  H    0.160107
    21  C   -0.298051
    22  C   -0.299715
    23  C   -0.475711
    24  H    0.149792
    25  H    0.149302
    26  H    0.152005
    27  H    0.152026
    28  H    0.155184
    29  H    0.155182
    30  H    0.160326
    31  C   -0.303200
    32  C   -0.299332
    33  C   -0.483252
    34  H    0.149942
    35  H    0.153741
    36  H    0.152251
    37  H    0.151002
    38  H    0.162810
    39  H    0.155615
    40  H    0.159510
 Sum of Mulliken charges =  -0.00000

 Dipole moment (field-independent basis, Debye):
    X=             -0.0110    Y=              0.0061    Z=              0.0148  Tot=              0.0194
 Quadrupole moment (field-independent basis, Debye-Ang):
   XX=            -85.0626   YY=            -85.4145   ZZ=            -84.2301
   XY=             -1.3749   XZ=              0.3486   YZ=              0.2624

 Normal termination of Gaussian 16 at Thu May  6 10:01:00 2021.
