 Gaussian 16, Revision A.03,
 Gaussian 16:  EM64L-G16RevA.03 25-Dec-2016

 -------------
 #p 6-31g* mp2
 -------------

 ------------------------------------------------------
 Input file generated by CHIRIPA (05-May-2021 14:57:21)
 ------------------------------------------------------
 Symbolic Z-matrix:
 Charge =  0 Multiplicity = 1

                         Standard orientation:
 ---------------------------------------------------------------------
 Center     Atomic      Atomic             Coordinates (Angstroms)
 Number     Number       Type             X           Y           Z
 ---------------------------------------------------------------------
      1          6           0        5.491593   -0.612244   -1.013598
      2          6           0        5.165790   -1.345506    0.132133
      3          6           0        3.989559   -1.074872    0.837672
      4          6           0        3.158344   -0.059465    0.367225
      5          6           0        3.455386    0.688642   -0.770927
      6          6           0        4.636858    0.400704   -1.460683
      7          1           0        6.407354   -0.829200   -1.555548
      8          1           0        5.827704   -2.132746    0.481658
      9          1           0        3.713012   -1.627062    1.727630
     10          1           0        2.775697    1.467378   -1.094982
     11          1           0        4.887332    0.971788   -2.350162
     12          7           0        1.910347    0.236203    1.105794
     13          8           0        1.194813    1.135863    0.670755
     14          8           0        1.671332   -0.437312    2.105737
     15          6           0       -4.998025   -1.812539   -0.163241
     16          6           0       -5.003053   -0.845460    0.847330
     17          6           0       -4.102223    0.223092    0.811992
     18          6           0       -3.206061    0.293884   -0.253453
     19          6           0       -3.176414   -0.653898   -1.275275
     20          6           0       -4.086329   -1.713844   -1.219457
     21          1           0       -5.701340   -2.639273   -0.127836
     22          1           0       -5.709961   -0.919560    1.668814
     23          1           0       -4.084376    0.985662    1.581138
     24          1           0       -2.459859   -0.553192   -2.081393
     25          1           0       -4.080146   -2.463434   -2.005664
     26          7           0       -2.247583    1.420557   -0.301705
     27          8           0       -1.468088    1.460266   -1.251151
     28          8           0       -2.293972    2.242601    0.610835
 ---------------------------------------------------------------------

 SCF Done:  E(RHF) =  -868.336477484     A.U. after   16 cycles
 E2 =    -0.2600349469D+01 EUMP2 =    -0.87093682695305D+03

 The electronic state is 1-A.
 Alpha  occ. eigenvalues --  -20.60014 -20.59886 -20.59564 -20.59540 -15.84988
 Alpha  occ. eigenvalues --  -15.84624 -11.30564 -11.30310 -11.27208 -11.27096
 Alpha  occ. eigenvalues --  -11.26980 -11.26951 -11.26895 -11.26746 -11.26265
 Alpha  occ. eigenvalues --  -11.26205 -11.26045 -11.26005  -1.59037  -1.58583
 Alpha  occ. eigenvalues --   -1.38573  -1.38150  -1.18769  -1.18513  -1.08136
 Alpha  occ. eigenvalues --   -1.07849  -1.04198  -1.03976  -0.94929  -0.94633
 Alpha  occ. eigenvalues --   -0.85586  -0.85360  -0.81747  -0.81480  -0.76753
 Alpha  occ. eigenvalues --   -0.76465  -0.71248  -0.70860  -0.70401  -0.69894
 Alpha  occ. eigenvalues --   -0.69787  -0.69642  -0.64411  -0.64207  -0.64173
 Alpha  occ. eigenvalues --   -0.63996  -0.61530  -0.61329  -0.54712  -0.54482
 Alpha  occ. eigenvalues --   -0.52529  -0.52292  -0.52269  -0.52085  -0.48039
 Alpha  occ. eigenvalues --   -0.47955  -0.47591  -0.47569  -0.44029  -0.43372
 Alpha  occ. eigenvalues --   -0.36780  -0.36507  -0.35814  -0.35590
 Alpha virt. eigenvalues --    0.05749   0.06128   0.11837   0.12061   0.17198
 Alpha virt. eigenvalues --    0.17546   0.21945   0.22101   0.27848   0.27976
 Alpha virt. eigenvalues --    0.28882   0.29030   0.31471   0.31610   0.33208

 Mulliken charges:
               1
     1  C   -0.171674
     2  C   -0.219087
     3  C   -0.172054
     4  C    0.157362
     5  C   -0.171444
     6  C   -0.219374
     7  H    0.223199
     8  H    0.220715
     9  H    0.273476
    10  H    0.284118
    11  H    0.222724
    12  N    0.485892
    13  O   -0.445576
    14  O   -0.468448
    15  C   -0.171918
    16  C   -0.218345
    17  C   -0.169218
    18  C    0.162608
    19  C   -0.171270
    20  C   -0.218490
    21  H    0.222270
    22  H    0.221225
    23  H    0.276329
    24  H    0.272140
    25  H    0.219526
    26  N    0.493629
    27  O   -0.462659
    28  O   -0.455658
 Sum of Mulliken charges =  -0.00000

 Dipole moment (field-independent basis, Debye):
    X=              1.0080    Y=             -4.6942    Z=             -2.4013  Tot=              5.3682
 Quadrupole moment (field-independent basis, Debye-Ang):
   XX=            -57.5668   YY=           -104.8671   ZZ=           -102.0323
   XY=              6.6118   XZ=             -8.0135   YZ=             -0.0561

 Normal termination of Gaussian 16 at Thu May  6 19:28:17 2021.
