 Gaussian 16, Revision A.03,
 Gaussian 16:  EM64L-G16RevA.03 25-Dec-2016

 -------------
 #p 6-31g* mp2
 -------------

 ------------------------------------------------------
 Input file generated by CHIRIPA (05-May-2021 14:51:12)
 ------------------------------------------------------
 Symbolic Z-matrix:
 Charge =  0 Multiplicity = 1

                         Standard orientation:
 ---------------------------------------------------------------------
 Center     Atomic      Atomic             Coordinates (Angstroms)
 Number     Number       Type             X           Y           Z
 ---------------------------------------------------------------------
      1          6           0        4.199667   -0.089150    0.055750
      2          6           0        5.209158   -0.234624   -1.083438
      3          6           0        6.167975   -1.407668   -0.877445
      4          1           0        4.741251    0.040058    1.002818
      5          1           0        3.625406   -1.021337    0.148738
      6          1           0        5.780397    0.698055   -1.175151
      7          1           0        4.665106   -0.363309   -2.027929
      8          1           0        5.614688   -2.349803   -0.807761
      9          1           0        6.736316   -1.282408    0.049863
     10          1           0        6.880947   -1.493229   -1.703404
     11          6           0        3.234270    1.079202   -0.135797
     12          6           0        2.224779    1.224676    1.003391
     13          6           0        1.265962    2.397719    0.797398
     14          1           0        3.808530    2.011389   -0.228785
     15          1           0        2.692685    0.949993   -1.082865
     16          1           0        2.768831    1.353361    1.947882
     17          1           0        1.653539    0.291997    1.095104
     18          1           0        0.697620    2.272460   -0.129910
     19          1           0        1.819248    3.339855    0.727714
     20          1           0        0.552989    2.483280    1.623357
     21          6           0       -2.954793   -0.485507    0.089322
     22          6           0       -2.393871   -1.561293    1.019932
     23          6           0       -0.867763   -1.529501    1.108126
     24          1           0       -2.525333   -0.616769   -0.913314
     25          1           0       -2.627507    0.502118    0.442701
     26          1           0       -2.723264   -2.546501    0.665699
     27          1           0       -2.824863   -1.427572    2.020422
     28          1           0       -0.523663   -0.560163    1.483066
     29          1           0       -0.421485   -1.685450    0.120646
     30          1           0       -0.488095   -2.306789    1.778599
     31          6           0       -4.479144   -0.504545   -0.009275
     32          6           0       -5.040065    0.571242   -0.939885
     33          6           0       -6.566173    0.539449   -1.028079
     34          1           0       -4.806430   -1.492169   -0.362654
     35          1           0       -4.908604   -0.373283    0.993361
     36          1           0       -4.609073    0.437521   -1.940375
     37          1           0       -4.710673    1.556451   -0.585653
     38          1           0       -7.012451    0.695399   -0.040599
     39          1           0       -6.910274   -0.429888   -1.403019
     40          1           0       -6.945841    1.316738   -1.698552
 ---------------------------------------------------------------------

 SCF Done:  E(RHF) =  -470.733161291     A.U. after   11 cycles
 E2 =    -0.1582777200D+01 EUMP2 =    -0.47231593849067D+03

 The electronic state is 1-A.
 Alpha  occ. eigenvalues --  -11.21633 -11.21609 -11.21565 -11.21481 -11.21421
 Alpha  occ. eigenvalues --  -11.21362 -11.21348 -11.21288 -11.21110 -11.21077
 Alpha  occ. eigenvalues --  -11.21048 -11.21043  -1.08451  -1.08372  -1.03566
 Alpha  occ. eigenvalues --   -1.03472  -0.96017  -0.95931  -0.87034  -0.86949
 Alpha  occ. eigenvalues --   -0.79671  -0.79501  -0.78274  -0.78171  -0.65097
 Alpha  occ. eigenvalues --   -0.64995  -0.61037  -0.60821  -0.59377  -0.59307
 Alpha  occ. eigenvalues --   -0.57667  -0.57501  -0.55345  -0.55173  -0.52707
 Alpha  occ. eigenvalues --   -0.52638  -0.52444  -0.52360  -0.49987  -0.49846
 Alpha  occ. eigenvalues --   -0.48062  -0.47774  -0.46718  -0.46474  -0.45872
 Alpha  occ. eigenvalues --   -0.45738  -0.45705  -0.45503  -0.43806  -0.43735
 Alpha virt. eigenvalues --    0.21582   0.23005   0.23580   0.24965   0.26073
 Alpha virt. eigenvalues --    0.26373   0.27136   0.27364   0.28150   0.29062
 Alpha virt. eigenvalues --    0.30804   0.31186   0.31673   0.31755   0.32296

 Mulliken charges:
               1
     1  C   -0.298486
     2  C   -0.299585
     3  C   -0.475673
     4  H    0.149502
     5  H    0.150008
     6  H    0.151818
     7  H    0.151745
     8  H    0.155157
     9  H    0.155129
    10  H    0.160082
    11  C   -0.297572
    12  C   -0.307873
    13  C   -0.476129
    14  H    0.149037
    15  H    0.149305
    16  H    0.151204
    17  H    0.161744
    18  H    0.155803
    19  H    0.155247
    20  H    0.158766
    21  C   -0.298694
    22  C   -0.299880
    23  C   -0.480303
    24  H    0.149279
    25  H    0.150349
    26  H    0.151936
    27  H    0.152120
    28  H    0.160781
    29  H    0.154386
    30  H    0.160557
    31  C   -0.298289
    32  C   -0.299701
    33  C   -0.475720
    34  H    0.149515
    35  H    0.149715
    36  H    0.151855
    37  H    0.152181
    38  H    0.155215
    39  H    0.155153
    40  H    0.160318
 Sum of Mulliken charges =  -0.00000

 Dipole moment (field-independent basis, Debye):
    X=             -0.0269    Y=             -0.0169    Z=              0.0100  Tot=              0.0332
 Quadrupole moment (field-independent basis, Debye-Ang):
   XX=            -86.2566   YY=            -84.7140   ZZ=            -83.9444
   XY=              1.0477   XZ=              0.0877   YZ=              0.8255

 Normal termination of Gaussian 16 at Thu May  6 00:45:35 2021.
