 Gaussian 16, Revision A.03,
 Gaussian 16:  EM64L-G16RevA.03 25-Dec-2016

 -------------
 #p 6-31g* mp2
 -------------

 ------------------------------------------------------
 Input file generated by CHIRIPA (05-May-2021 14:51:10)
 ------------------------------------------------------
 Symbolic Z-matrix:
 Charge =  0 Multiplicity = 1

                         Standard orientation:
 ---------------------------------------------------------------------
 Center     Atomic      Atomic             Coordinates (Angstroms)
 Number     Number       Type             X           Y           Z
 ---------------------------------------------------------------------
      1          6           0       -3.586605   -0.702941   -0.400410
      2          6           0       -4.731867   -1.353203    0.376454
      3          6           0       -4.880553   -2.844311    0.072674
      4          1           0       -3.755387   -0.844272   -1.476739
      5          1           0       -2.648542   -1.222330   -0.160270
      6          1           0       -5.667274   -0.831856    0.135980
      7          1           0       -4.560438   -1.210140    1.451052
      8          1           0       -3.962881   -3.383205    0.329719
      9          1           0       -5.076005   -3.002772   -0.992826
     10          1           0       -5.705009   -3.289068    0.638645
     11          6           0       -3.425336    0.787646   -0.107372
     12          6           0       -2.280074    1.437908   -0.884236
     13          6           0       -2.131388    2.929016   -0.580456
     14          1           0       -4.363399    1.307035   -0.347512
     15          1           0       -3.256554    0.928977    0.968957
     16          1           0       -2.451503    1.294845   -1.958834
     17          1           0       -1.344667    0.916561   -0.643762
     18          1           0       -1.935936    3.087477    0.485044
     19          1           0       -3.049060    3.467910   -0.837501
     20          1           0       -1.306932    3.373773   -1.146427
     21          6           0        3.944368   -0.655474    0.130111
     22          6           0        5.318112   -0.312135   -0.446892
     23          6           0        6.183557   -1.549136   -0.689023
     24          1           0        4.076336   -1.202779    1.073502
     25          1           0        3.425829   -1.338054   -0.557344
     26          1           0        5.833350    0.370691    0.240781
     27          1           0        5.182856    0.234584   -1.388922
     28          1           0        5.693769   -2.230296   -1.392394
     29          1           0        6.347960   -2.093416    0.246568
     30          1           0        7.161084   -1.280691   -1.101622
     31          6           0        3.067573    0.570769    0.377671
     32          6           0        1.693829    0.227429    0.954674
     33          6           0        0.828384    1.464431    1.196805
     34          1           0        3.586112    1.253349    1.065126
     35          1           0        2.935605    1.118073   -0.565720
     36          1           0        1.829085   -0.319289    1.896704
     37          1           0        1.178591   -0.455396    0.267001
     38          1           0        0.663981    2.008710    0.261214
     39          1           0        1.318172    2.145591    1.900176
     40          1           0       -0.149143    1.195986    1.609404
 ---------------------------------------------------------------------

 SCF Done:  E(RHF) =  -470.732186165     A.U. after   11 cycles
 E2 =    -0.1583838677D+01 EUMP2 =    -0.47231602484216D+03

 The electronic state is 1-A.
 Alpha  occ. eigenvalues --  -11.21653 -11.21619 -11.21590 -11.21477 -11.21435
 Alpha  occ. eigenvalues --  -11.21381 -11.21375 -11.21320 -11.21084 -11.21063
 Alpha  occ. eigenvalues --  -11.21061 -11.20988  -1.08474  -1.08386  -1.03621
 Alpha  occ. eigenvalues --   -1.03436  -0.96080  -0.95880  -0.87049  -0.86942
 Alpha  occ. eigenvalues --   -0.79631  -0.79552  -0.78273  -0.78214  -0.65223
 Alpha  occ. eigenvalues --   -0.64950  -0.61292  -0.60670  -0.59325  -0.59315
 Alpha  occ. eigenvalues --   -0.57650  -0.57538  -0.55514  -0.54993  -0.52676
 Alpha  occ. eigenvalues --   -0.52655  -0.52438  -0.52332  -0.49939  -0.49868
 Alpha  occ. eigenvalues --   -0.47940  -0.47851  -0.46679  -0.46535  -0.45830
 Alpha  occ. eigenvalues --   -0.45745  -0.45734  -0.45640  -0.43810  -0.43742
 Alpha virt. eigenvalues --    0.20708   0.23033   0.23699   0.24782   0.26068
 Alpha virt. eigenvalues --    0.26260   0.26798   0.27455   0.28172   0.29401
 Alpha virt. eigenvalues --    0.29834   0.31324   0.31585   0.32167   0.32378

 Mulliken charges:
               1
     1  C   -0.298233
     2  C   -0.299586
     3  C   -0.475712
     4  H    0.149622
     5  H    0.149146
     6  H    0.151969
     7  H    0.151826
     8  H    0.155169
     9  H    0.155124
    10  H    0.160220
    11  C   -0.298806
    12  C   -0.306202
    13  C   -0.476802
    14  H    0.149572
    15  H    0.149095
    16  H    0.151094
    17  H    0.160595
    18  H    0.158143
    19  H    0.154902
    20  H    0.158444
    21  C   -0.298336
    22  C   -0.299689
    23  C   -0.475732
    24  H    0.149678
    25  H    0.149604
    26  H    0.151972
    27  H    0.152015
    28  H    0.155242
    29  H    0.155189
    30  H    0.160329
    31  C   -0.298312
    32  C   -0.302689
    33  C   -0.480461
    34  H    0.149827
    35  H    0.149857
    36  H    0.152118
    37  H    0.152336
    38  H    0.161054
    39  H    0.155920
    40  H    0.160499
 Sum of Mulliken charges =  -0.00000

 Dipole moment (field-independent basis, Debye):
    X=              0.0340    Y=              0.0145    Z=              0.0093  Tot=              0.0381
 Quadrupole moment (field-independent basis, Debye-Ang):
   XX=            -84.9285   YY=            -86.5585   ZZ=            -83.4093
   XY=              0.2556   XZ=              0.9534   YZ=             -0.3606

 Normal termination of Gaussian 16 at Wed May  5 16:41:00 2021.
