 Gaussian 16, Revision A.03,
 Gaussian 16:  EM64L-G16RevA.03 25-Dec-2016

 -------------
 #p 6-31g* mp2
 -------------

 ------------------------------------------------------
 Input file generated by CHIRIPA (05-May-2021 14:55:20)
 ------------------------------------------------------
 Symbolic Z-matrix:
 Charge =  0 Multiplicity = 1

                         Standard orientation:
 ---------------------------------------------------------------------
 Center     Atomic      Atomic             Coordinates (Angstroms)
 Number     Number       Type             X           Y           Z
 ---------------------------------------------------------------------
      1          6           0        5.639944    1.730882   -0.092473
      2          6           0        4.382945    2.018653    0.449432
      3          6           0        3.376758    1.048118    0.463544
      4          6           0        3.663290   -0.205305   -0.075084
      5          6           0        4.905645   -0.522473   -0.622120
      6          6           0        5.896830    0.463472   -0.625580
      7          1           0        6.415747    2.490803   -0.099299
      8          1           0        4.180615    3.002077    0.864141
      9          1           0        2.394786    1.244028    0.876783
     10          1           0        5.077525   -1.511891   -1.028233
     11          1           0        6.872105    0.237169   -1.047089
     12          7           0        2.606026   -1.240924   -0.065782
     13          8           0        2.883630   -2.337516   -0.546469
     14          8           0        1.519758   -0.936441    0.422018
     15          6           0       -5.661257    0.092883    0.238653
     16          6           0       -6.461390    0.669112   -0.929991
     17          6           0       -7.958605    0.759999   -0.633541
     18          1           0       -6.049259   -0.905324    0.483568
     19          1           0       -5.822632    0.717807    1.127935
     20          1           0       -6.297458    0.044077   -1.817163
     21          1           0       -6.071314    1.665983   -1.172277
     22          1           0       -8.141056    1.400199    0.235629
     23          1           0       -8.368486   -0.230923   -0.412921
     24          1           0       -8.511474    1.174550   -1.482271
     25          6           0       -4.162845   -0.004248   -0.042514
     26          6           0       -3.362710   -0.580478    1.126130
     27          6           0       -1.865496   -0.671365    0.829679
     28          1           0       -4.001469   -0.629173   -0.931796
     29          1           0       -3.774843    0.993958   -0.287429
     30          1           0       -3.752787   -1.577349    1.368416
     31          1           0       -3.526643    0.044557    2.013302
     32          1           0       -1.455615    0.319557    0.609060
     33          1           0       -1.683045   -1.311564   -0.039490
     34          1           0       -1.312627   -1.085916    1.678410
 ---------------------------------------------------------------------

 SCF Done:  E(RHF) =  -669.535575159     A.U. after   15 cycles
 E2 =    -0.2090803215D+01 EUMP2 =    -0.67162637837400D+03

 The electronic state is 1-A.
 Alpha  occ. eigenvalues --  -20.60816 -20.60803 -15.85853 -11.31224 -11.27795
 Alpha  occ. eigenvalues --  -11.27791 -11.27541 -11.26813 -11.26804 -11.21131
 Alpha  occ. eigenvalues --  -11.20789 -11.20688 -11.20619 -11.20543 -11.19553
 Alpha  occ. eigenvalues --   -1.59882  -1.39435  -1.19399  -1.08794  -1.07715
 Alpha  occ. eigenvalues --   -1.04802  -1.02721  -0.95633  -0.95127  -0.86206
 Alpha  occ. eigenvalues --   -0.86129  -0.82457  -0.78804  -0.77548  -0.77453
 Alpha  occ. eigenvalues --   -0.72064  -0.71202  -0.70507  -0.65052  -0.64806
 Alpha  occ. eigenvalues --   -0.64359  -0.62149  -0.60130  -0.58560  -0.56744
 Alpha  occ. eigenvalues --   -0.55305  -0.54433  -0.53132  -0.52896  -0.51777
 Alpha  occ. eigenvalues --   -0.51555  -0.49127  -0.48827  -0.48789  -0.47104
 Alpha  occ. eigenvalues --   -0.45870  -0.45058  -0.44965  -0.44799  -0.42952
 Alpha  occ. eigenvalues --   -0.37381  -0.36407
 Alpha virt. eigenvalues --    0.05021   0.11248   0.16506   0.21339   0.23511
 Alpha virt. eigenvalues --    0.25075   0.27118   0.27378   0.27921   0.28193
 Alpha virt. eigenvalues --    0.29039   0.30880   0.31955   0.32369   0.32769

 Mulliken charges:
               1
     1  C   -0.170770
     2  C   -0.218543
     3  C   -0.170926
     4  C    0.157714
     5  C   -0.170743
     6  C   -0.218578
     7  H    0.225703
     8  H    0.223537
     9  H    0.275832
    10  H    0.275706
    11  H    0.223547
    12  N    0.492959
    13  O   -0.460358
    14  O   -0.462554
    15  C   -0.297364
    16  C   -0.298991
    17  C   -0.475263
    18  H    0.149176
    19  H    0.147584
    20  H    0.151797
    21  H    0.150373
    22  H    0.154132
    23  H    0.154948
    24  H    0.158655
    25  C   -0.297079
    26  C   -0.302968
    27  C   -0.464702
    28  H    0.149790
    29  H    0.146476
    30  H    0.149754
    31  H    0.146130
    32  H    0.147842
    33  H    0.161240
    34  H    0.165943
 Sum of Mulliken charges =  -0.00000

 Dipole moment (field-independent basis, Debye):
    X=              4.0054    Y=              3.5645    Z=             -0.0423  Tot=              5.3620
 Quadrupole moment (field-independent basis, Debye-Ang):
   XX=            -68.4399   YY=            -93.6817   ZZ=            -94.4940
   XY=             11.0316   XZ=             -1.8343   YZ=              1.7645

 Normal termination of Gaussian 16 at Thu May  6 15:47:16 2021.
