 Gaussian 16, Revision A.03,
 Gaussian 16:  EM64L-G16RevA.03 25-Dec-2016

 -------------
 #p 6-31g* mp2
 -------------

 ------------------------------------------------------
 Input file generated by CHIRIPA (05-May-2021 14:51:12)
 ------------------------------------------------------
 Symbolic Z-matrix:
 Charge =  0 Multiplicity = 1

                         Standard orientation:
 ---------------------------------------------------------------------
 Center     Atomic      Atomic             Coordinates (Angstroms)
 Number     Number       Type             X           Y           Z
 ---------------------------------------------------------------------
      1          6           0        2.648884    0.268479    0.171139
      2          6           0        3.982936   -0.176200   -0.429319
      3          6           0        4.339951   -1.619496   -0.072624
      4          1           0        2.691021    0.158914    1.263460
      5          1           0        1.854254   -0.404290   -0.180058
      6          1           0        4.774596    0.498042   -0.078194
      7          1           0        3.937686   -0.065383   -1.520323
      8          1           0        3.570838   -2.307994   -0.437366
      9          1           0        4.412503   -1.741367    1.012956
     10          1           0        5.297262   -1.916607   -0.512102
     11          6           0        2.278213    1.709109   -0.176589
     12          6           0        0.944161    2.153788    0.423869
     13          6           0        0.587146    3.597084    0.067175
     14          1           0        3.072843    2.381879    0.174608
     15          1           0        2.236076    1.818674   -1.268910
     16          1           0        0.989411    2.042971    1.514873
     17          1           0        0.152501    1.479546    0.072744
     18          1           0        0.514594    3.718956   -1.018406
     19          1           0        1.356259    4.285582    0.431916
     20          1           0       -0.370165    3.894195    0.506652
     21          6           0       -2.174581   -1.644934   -0.260733
     22          6           0       -1.001434   -2.167389    0.569178
     23          6           0       -0.434127   -3.480716    0.029616
     24          1           0       -2.966570   -2.405953   -0.284155
     25          1           0       -1.845703   -1.503993   -1.299661
     26          1           0       -1.332053   -2.305988    1.606530
     27          1           0       -0.212225   -1.404960    0.590787
     28          1           0       -0.077577   -3.353170   -0.997616
     29          1           0       -1.203768   -4.259317    0.023898
     30          1           0        0.403512   -3.836142    0.637804
     31          6           0       -2.752516   -0.332655    0.266183
     32          6           0       -3.925663    0.189800   -0.563728
     33          6           0       -4.492970    1.503127   -0.024166
     34          1           0       -3.081393   -0.473595    1.305110
     35          1           0       -1.960527    0.428364    0.289605
     36          1           0       -4.714873   -0.572628   -0.585338
     37          1           0       -3.595044    0.328400   -1.601080
     38          1           0       -3.723328    2.281729   -0.018448
     39          1           0       -4.849520    1.375581    1.003066
     40          1           0       -5.330609    1.858554   -0.632355
 ---------------------------------------------------------------------

 SCF Done:  E(RHF) =  -470.732866413     A.U. after   11 cycles
 E2 =    -0.1584446112D+01 EUMP2 =    -0.47231731252494D+03

 The electronic state is 1-A.
 Alpha  occ. eigenvalues --  -11.21662 -11.21636 -11.21596 -11.21548 -11.21458
 Alpha  occ. eigenvalues --  -11.21397 -11.21388 -11.21324 -11.21139 -11.21084
 Alpha  occ. eigenvalues --  -11.21075 -11.21068  -1.08505  -1.08408  -1.03584
 Alpha  occ. eigenvalues --   -1.03517  -0.96031  -0.95971  -0.87049  -0.86983
 Alpha  occ. eigenvalues --   -0.79672  -0.79568  -0.78447  -0.78103  -0.65323
 Alpha  occ. eigenvalues --   -0.64879  -0.61055  -0.60867  -0.59411  -0.59325
 Alpha  occ. eigenvalues --   -0.57675  -0.57549  -0.55361  -0.55228  -0.52727
 Alpha  occ. eigenvalues --   -0.52662  -0.52478  -0.52373  -0.50060  -0.49838
 Alpha  occ. eigenvalues --   -0.48023  -0.47869  -0.46810  -0.46741  -0.46205
 Alpha  occ. eigenvalues --   -0.45803  -0.45738  -0.44984  -0.43830  -0.43767
 Alpha virt. eigenvalues --    0.20215   0.22298   0.23671   0.24526   0.25892
 Alpha virt. eigenvalues --    0.26563   0.26897   0.27212   0.27852   0.29982
 Alpha virt. eigenvalues --    0.31239   0.31511   0.31663   0.31786   0.32224

 Mulliken charges:
               1
     1  C   -0.304815
     2  C   -0.299165
     3  C   -0.476355
     4  H    0.149906
     5  H    0.155826
     6  H    0.152123
     7  H    0.151794
     8  H    0.156063
     9  H    0.155181
    10  H    0.160377
    11  C   -0.297361
    12  C   -0.308711
    13  C   -0.475855
    14  H    0.149945
    15  H    0.149291
    16  H    0.152618
    17  H    0.159129
    18  H    0.155083
    19  H    0.155874
    20  H    0.160405
    21  C   -0.297383
    22  C   -0.308520
    23  C   -0.475998
    24  H    0.149757
    25  H    0.148256
    26  H    0.152126
    27  H    0.160173
    28  H    0.154046
    29  H    0.155456
    30  H    0.160963
    31  C   -0.307515
    32  C   -0.298972
    33  C   -0.475836
    34  H    0.149746
    35  H    0.158288
    36  H    0.151978
    37  H    0.151476
    38  H    0.155120
    39  H    0.155228
    40  H    0.160260
 Sum of Mulliken charges =  -0.00000

 Dipole moment (field-independent basis, Debye):
    X=              0.0310    Y=              0.0177    Z=              0.0197  Tot=              0.0408
 Quadrupole moment (field-independent basis, Debye-Ang):
   XX=            -84.5614   YY=            -86.3640   ZZ=            -83.8220
   XY=              1.3997   XZ=              0.0836   YZ=             -0.1243

 Normal termination of Gaussian 16 at Wed May  5 16:46:34 2021.
