 Gaussian 16, Revision A.03,
 Gaussian 16:  EM64L-G16RevA.03 25-Dec-2016

 -------------
 #p 6-31g* mp2
 -------------

 ------------------------------------------------------
 Input file generated by CHIRIPA (05-May-2021 14:53:13)
 ------------------------------------------------------
 Symbolic Z-matrix:
 Charge =  0 Multiplicity = 1

                         Standard orientation:
 ---------------------------------------------------------------------
 Center     Atomic      Atomic             Coordinates (Angstroms)
 Number     Number       Type             X           Y           Z
 ---------------------------------------------------------------------
      1          6           0        2.065602    1.297398   -0.631476
      2          6           0        1.641295    2.278872    0.461528
      3          6           0        1.134022    3.607024   -0.101038
      4          1           0        2.849524    1.759997   -1.246630
      5          1           0        1.212912    1.112037   -1.299276
      6          1           0        2.494135    2.461256    1.127873
      7          1           0        0.858427    1.813810    1.074269
      8          1           0        0.267316    3.444635   -0.749922
      9          1           0        1.912317    4.095760   -0.696012
     10          1           0        0.836079    4.293634    0.697496
     11          6           0        2.575072   -0.034994   -0.084760
     12          6           0        2.999378   -1.016468   -1.177764
     13          6           0        3.506651   -2.344620   -0.615198
     14          1           0        3.427762    0.150367    0.583040
     15          1           0        1.791150   -0.497593    0.530394
     16          1           0        3.782246   -0.551406   -1.790505
     17          1           0        2.146538   -1.198852   -1.844109
     18          1           0        2.728356   -2.833356   -0.020224
     19          1           0        4.373358   -2.182231    0.033685
     20          1           0        3.804595   -3.031230   -1.413732
     21          6           0       -0.338118   -1.125944    2.226799
     22          6           0       -0.480254   -1.999302    1.143488
     23          6           0       -1.294688   -1.659062    0.059292
     24          6           0       -1.955326   -0.431948    0.091549
     25          6           0       -1.833953    0.459579    1.156320
     26          6           0       -1.014229    0.098550    2.229753
     27          1           0        0.296610   -1.398325    3.064849
     28          1           0        0.043621   -2.950918    1.138482
     29          1           0       -1.422586   -2.316322   -0.792218
     30          1           0       -2.368836    1.401260    1.132740
     31          1           0       -0.905715    0.778789    3.069721
     32          7           0       -2.820331   -0.060747   -1.050543
     33          8           0       -3.391669    1.026199   -0.998004
     34          8           0       -2.910607   -0.863774   -1.976630
 ---------------------------------------------------------------------

 SCF Done:  E(RHF) =  -669.533137330     A.U. after   15 cycles
 E2 =    -0.2097170272D+01 EUMP2 =    -0.67163030760252D+03

 The electronic state is 1-A.
 Alpha  occ. eigenvalues --  -20.60940 -20.60935 -15.85996 -11.31432 -11.27989
 Alpha  occ. eigenvalues --  -11.27982 -11.27685 -11.26983 -11.26972 -11.21823
 Alpha  occ. eigenvalues --  -11.21597 -11.21556 -11.21422 -11.21349 -11.21097
 Alpha  occ. eigenvalues --   -1.60015  -1.39566  -1.19617  -1.09006  -1.08528
 Alpha  occ. eigenvalues --   -1.05028  -1.03703  -0.96163  -0.95804  -0.87181
 Alpha  occ. eigenvalues --   -0.86401  -0.82634  -0.79774  -0.78380  -0.77667
 Alpha  occ. eigenvalues --   -0.72209  -0.71344  -0.70679  -0.65305  -0.65218
 Alpha  occ. eigenvalues --   -0.64973  -0.62364  -0.61125  -0.59537  -0.57782
 Alpha  occ. eigenvalues --   -0.55541  -0.55449  -0.53435  -0.53085  -0.52838
 Alpha  occ. eigenvalues --   -0.52585  -0.50131  -0.48975  -0.48962  -0.48124
 Alpha  occ. eigenvalues --   -0.46857  -0.45864  -0.45774  -0.44956  -0.43917
 Alpha  occ. eigenvalues --   -0.37421  -0.36486
 Alpha virt. eigenvalues --    0.04819   0.10873   0.16186   0.20353   0.23089
 Alpha virt. eigenvalues --    0.23411   0.26318   0.26741   0.27586   0.27890
 Alpha virt. eigenvalues --    0.28509   0.30293   0.31252   0.31533   0.32175

 Mulliken charges:
               1
     1  C   -0.296667
     2  C   -0.307310
     3  C   -0.477089
     4  H    0.149766
     5  H    0.151088
     6  H    0.147885
     7  H    0.154855
     8  H    0.160160
     9  H    0.156438
    10  H    0.156545
    11  C   -0.308493
    12  C   -0.299444
    13  C   -0.474743
    14  H    0.144896
    15  H    0.160051
    16  H    0.153829
    17  H    0.152910
    18  H    0.144061
    19  H    0.155690
    20  H    0.162377
    21  C   -0.172132
    22  C   -0.220335
    23  C   -0.170075
    24  C    0.159929
    25  C   -0.169638
    26  C   -0.218253
    27  H    0.228164
    28  H    0.226608
    29  H    0.276862
    30  H    0.277442
    31  H    0.226136
    32  N    0.487723
    33  O   -0.459681
    34  O   -0.459556
 Sum of Mulliken charges =  -0.00000

 Dipole moment (field-independent basis, Debye):
    X=              2.8431    Y=             -1.3528    Z=              4.0388  Tot=              5.1210
 Quadrupole moment (field-independent basis, Debye-Ang):
   XX=           -106.7779   YY=            -91.2394   ZZ=            -93.3638
   XY=              0.8473   XZ=             -8.4596   YZ=              0.4491

 Normal termination of Gaussian 16 at Thu May  6 07:23:09 2021.
