 Gaussian 16, Revision A.03,
 Gaussian 16:  EM64L-G16RevA.03 25-Dec-2016

 -------------
 #p 6-31g* mp2
 -------------

 ------------------------------------------------------
 Input file generated by CHIRIPA (05-May-2021 14:57:25)
 ------------------------------------------------------
 Symbolic Z-matrix:
 Charge =  0 Multiplicity = 1

                         Standard orientation:
 ---------------------------------------------------------------------
 Center     Atomic      Atomic             Coordinates (Angstroms)
 Number     Number       Type             X           Y           Z
 ---------------------------------------------------------------------
      1          6           0        2.024212    1.974028    0.020983
      2          6           0        1.546745    0.765299   -0.496240
      3          6           0        2.376150   -0.358587   -0.555541
      4          6           0        3.683414   -0.237696   -0.086780
      5          6           0        4.188360    0.952687    0.434091
      6          6           0        3.341174    2.063707    0.483682
      7          1           0        1.373004    2.842092    0.063278
      8          1           0        0.524425    0.692736   -0.856296
      9          1           0        2.032307   -1.306613   -0.951062
     10          1           0        5.212194    0.994282    0.785447
     11          1           0        3.714685    3.001136    0.885877
     12          7           0        4.570880   -1.420693   -0.144419
     13          8           0        5.718583   -1.288236    0.274948
     14          8           0        4.101968   -2.457983   -0.607872
     15          6           0       -4.918588   -2.062797    0.233247
     16          6           0       -4.077785   -1.697377    1.289673
     17          6           0       -3.307816   -0.532906    1.214151
     18          6           0       -3.403596    0.246278    0.062201
     19          6           0       -4.231960   -0.091105   -1.007039
     20          6           0       -4.992862   -1.259911   -0.909722
     21          1           0       -5.513197   -2.969070    0.300379
     22          1           0       -4.018089   -2.318989    2.178537
     23          1           0       -2.648645   -0.226455    2.017270
     24          1           0       -4.270242    0.548773   -1.880256
     25          1           0       -5.644976   -1.541233   -1.731702
     26          7           0       -2.593264    1.481346   -0.029285
     27          8           0       -2.695567    2.150733   -1.055000
     28          8           0       -1.871167    1.756618    0.926454
 ---------------------------------------------------------------------

 SCF Done:  E(RHF) =  -868.340097503     A.U. after   16 cycles
 E2 =    -0.2598685563D+01 EUMP2 =    -0.87093878306551D+03

 The electronic state is 1-A.
 Alpha  occ. eigenvalues --  -20.61898 -20.61892 -20.60239 -20.60232 -15.86908
 Alpha  occ. eigenvalues --  -15.85286 -11.31945 -11.30429 -11.28473 -11.28460
 Alpha  occ. eigenvalues --  -11.28134 -11.27398 -11.27382 -11.26998 -11.26981
 Alpha  occ. eigenvalues --  -11.26488 -11.25902 -11.25831  -1.60984  -1.59320
 Alpha  occ. eigenvalues --   -1.40532  -1.38880  -1.20087  -1.18564  -1.09544
 Alpha  occ. eigenvalues --   -1.07953  -1.05429  -1.03948  -0.96429  -0.94834
 Alpha  occ. eigenvalues --   -0.86841  -0.85323  -0.83262  -0.81695  -0.78353
 Alpha  occ. eigenvalues --   -0.76812  -0.73125  -0.72316  -0.71505  -0.71173
 Alpha  occ. eigenvalues --   -0.70643  -0.69561  -0.65731  -0.65417  -0.64193
 Alpha  occ. eigenvalues --   -0.63914  -0.62774  -0.61312  -0.55931  -0.54293
 Alpha  occ. eigenvalues --   -0.53787  -0.53507  -0.52275  -0.52023  -0.49908
 Alpha  occ. eigenvalues --   -0.49873  -0.48277  -0.48241  -0.45992  -0.44337
 Alpha  occ. eigenvalues --   -0.38048  -0.37018  -0.36451  -0.35569
 Alpha virt. eigenvalues --    0.04121   0.05735   0.10641   0.12109   0.15695
 Alpha virt. eigenvalues --    0.17313   0.20845   0.22299   0.26793   0.27548
 Alpha virt. eigenvalues --    0.27978   0.29326   0.30496   0.31830   0.31926

 Mulliken charges:
               1
     1  C   -0.168617
     2  C   -0.216055
     3  C   -0.174174
     4  C    0.157257
     5  C   -0.172190
     6  C   -0.220354
     7  H    0.239999
     8  H    0.224790
     9  H    0.270760
    10  H    0.272613
    11  H    0.221833
    12  N    0.488319
    13  O   -0.462587
    14  O   -0.463982
    15  C   -0.169317
    16  C   -0.218356
    17  C   -0.171019
    18  C    0.154416
    19  C   -0.171151
    20  C   -0.218496
    21  H    0.229012
    22  H    0.226921
    23  H    0.277017
    24  H    0.276191
    25  H    0.226140
    26  N    0.485019
    27  O   -0.460500
    28  O   -0.463489
 Sum of Mulliken charges =  -0.00000

 Dipole moment (field-independent basis, Debye):
    X=             -6.4692    Y=             -0.1070    Z=              0.5765  Tot=              6.4957
 Quadrupole moment (field-independent basis, Debye-Ang):
   XX=           -106.0165   YY=           -108.0750   ZZ=           -100.6505
   XY=             33.3800   XZ=              3.4622   YZ=             -0.4257

 Normal termination of Gaussian 16 at Thu May  6 00:22:05 2021.
