 Gaussian 16, Revision A.03,
 Gaussian 16:  EM64L-G16RevA.03 25-Dec-2016

 -------------
 #p 6-31g* mp2
 -------------

 ------------------------------------------------------
 Input file generated by CHIRIPA (05-May-2021 14:57:25)
 ------------------------------------------------------
 Symbolic Z-matrix:
 Charge =  0 Multiplicity = 1

                         Standard orientation:
 ---------------------------------------------------------------------
 Center     Atomic      Atomic             Coordinates (Angstroms)
 Number     Number       Type             X           Y           Z
 ---------------------------------------------------------------------
      1          6           0       -2.497948    2.677786   -0.143608
      2          6           0       -3.637225    2.035681    0.352648
      3          6           0       -3.753325    0.644021    0.286693
      4          6           0       -2.706430   -0.077744   -0.284581
      5          6           0       -1.558721    0.532944   -0.787687
      6          6           0       -1.464154    1.925694   -0.711190
      7          1           0       -2.416122    3.759285   -0.088278
      8          1           0       -4.441646    2.617217    0.793974
      9          1           0       -4.624182    0.121286    0.663224
     10          1           0       -0.773307   -0.073621   -1.221992
     11          1           0       -0.578210    2.421674   -1.097391
     12          7           0       -2.817941   -1.551610   -0.359984
     13          8           0       -1.881718   -2.164808   -0.868031
     14          8           0       -3.839456   -2.065720    0.090389
     15          6           0        1.525324   -0.545945    2.478734
     16          6           0        1.125137   -1.259677    1.344292
     17          6           0        1.762225   -1.056813    0.116484
     18          6           0        2.800459   -0.128355    0.058830
     19          6           0        3.222094    0.598176    1.171335
     20          6           0        2.570681    0.379073    2.388793
     21          1           0        1.024854   -0.709842    3.428505
     22          1           0        0.313601   -1.978691    1.411186
     23          1           0        1.472637   -1.595754   -0.777440
     24          1           0        4.034271    1.308258    1.073509
     25          1           0        2.883591    0.934793    3.268172
     26          7           0        3.482498    0.095005   -1.235518
     27          8           0        4.394483    0.918606   -1.260017
     28          8           0        3.092180   -0.557757   -2.201017
 ---------------------------------------------------------------------

 SCF Done:  E(RHF) =  -868.339440631     A.U. after   16 cycles
 E2 =    -0.2601311128D+01 EUMP2 =    -0.87094075175889D+03

 The electronic state is 1-A.
 Alpha  occ. eigenvalues --  -20.61488 -20.61453 -20.60971 -20.60965 -15.86489
 Alpha  occ. eigenvalues --  -15.86016 -11.31569 -11.31301 -11.28135 -11.28077
 Alpha  occ. eigenvalues --  -11.27859 -11.27808 -11.27719 -11.27504 -11.27083
 Alpha  occ. eigenvalues --  -11.27008 -11.26867 -11.26668  -1.60535  -1.60056
 Alpha  occ. eigenvalues --   -1.40098  -1.39607  -1.19729  -1.19443  -1.09175
 Alpha  occ. eigenvalues --   -1.08850  -1.05090  -1.04787  -0.96055  -0.95698
 Alpha  occ. eigenvalues --   -0.86499  -0.86201  -0.82893  -0.82503  -0.78001
 Alpha  occ. eigenvalues --   -0.77552  -0.72713  -0.72221  -0.71855  -0.71399
 Alpha  occ. eigenvalues --   -0.70851  -0.70504  -0.65380  -0.65115  -0.65035
 Alpha  occ. eigenvalues --   -0.64740  -0.62489  -0.62048  -0.55606  -0.55289
 Alpha  occ. eigenvalues --   -0.53559  -0.53256  -0.52974  -0.52814  -0.49489
 Alpha  occ. eigenvalues --   -0.49436  -0.48991  -0.48977  -0.45549  -0.45027
 Alpha  occ. eigenvalues --   -0.37741  -0.37426  -0.36895  -0.36126
 Alpha virt. eigenvalues --    0.04436   0.04949   0.10918   0.11172   0.16033
 Alpha virt. eigenvalues --    0.16445   0.20840   0.21712   0.26177   0.27337
 Alpha virt. eigenvalues --    0.27919   0.28821   0.30897   0.31063   0.31616

 Mulliken charges:
               1
     1  C   -0.170306
     2  C   -0.219429
     3  C   -0.171438
     4  C    0.154192
     5  C   -0.167753
     6  C   -0.220241
     7  H    0.227337
     8  H    0.224015
     9  H    0.275153
    10  H    0.277450
    11  H    0.228483
    12  N    0.487610
    13  O   -0.467738
    14  O   -0.456996
    15  C   -0.171126
    16  C   -0.221423
    17  C   -0.185330
    18  C    0.156780
    19  C   -0.173732
    20  C   -0.218361
    21  H    0.226760
    22  H    0.237920
    23  H    0.285134
    24  H    0.274284
    25  H    0.222742
    26  N    0.486974
    27  O   -0.461230
    28  O   -0.459734
 Sum of Mulliken charges =  -0.00000

 Dipole moment (field-independent basis, Debye):
    X=             -2.1322    Y=              4.3945    Z=              4.8652  Tot=              6.8940
 Quadrupole moment (field-independent basis, Debye-Ang):
   XX=           -115.4902   YY=           -103.7977   ZZ=           -103.6284
   XY=            -14.3431   XZ=             11.0878   YZ=             -0.5448

 Normal termination of Gaussian 16 at Thu May  6 00:22:38 2021.
