 Gaussian 16, Revision A.03,
 Gaussian 16:  EM64L-G16RevA.03 25-Dec-2016

 -------------
 #p 6-31g* mp2
 -------------

 ------------------------------------------------------
 Input file generated by CHIRIPA (05-May-2021 14:55:22)
 ------------------------------------------------------
 Symbolic Z-matrix:
 Charge =  0 Multiplicity = 1

                         Standard orientation:
 ---------------------------------------------------------------------
 Center     Atomic      Atomic             Coordinates (Angstroms)
 Number     Number       Type             X           Y           Z
 ---------------------------------------------------------------------
      1          6           0        3.711879    1.477743    0.852838
      2          6           0        4.088526    0.791258   -0.306212
      3          6           0        3.339682   -0.298139   -0.761176
      4          6           0        2.214909   -0.675674   -0.029299
      5          6           0        1.814006   -0.011910    1.129141
      6          6           0        2.577820    1.074679    1.565559
      7          1           0        4.299414    2.322923    1.199061
      8          1           0        4.968778    1.102059   -0.861734
      9          1           0        3.608645   -0.847416   -1.655252
     10          1           0        0.931539   -0.345168    1.661691
     11          1           0        2.282940    1.605945    2.466029
     12          7           0        1.414217   -1.827483   -0.501132
     13          8           0        0.427503   -2.140304    0.161570
     14          8           0        1.788510   -2.395641   -1.524723
     15          6           0       -2.507554    1.190602    0.054272
     16          6           0       -2.680064    2.355117   -0.921499
     17          6           0       -1.679707    3.485107   -0.676135
     18          1           0       -2.617205    1.562537    1.082176
     19          1           0       -1.483934    0.799933   -0.029244
     20          1           0       -3.703477    2.742582   -0.837156
     21          1           0       -2.570180    1.980332   -1.947208
     22          1           0       -0.652863    3.119920   -0.780199
     23          1           0       -1.792598    3.886501    0.336159
     24          1           0       -1.820877    4.307171   -1.384756
     25          6           0       -3.500441    0.053152   -0.178342
     26          6           0       -3.327931   -1.111363    0.797429
     27          6           0       -4.328288   -2.241352    0.552065
     28          1           0       -4.524061    0.443822   -0.094826
     29          1           0       -3.390791   -0.318783   -1.206246
     30          1           0       -3.437815   -0.736578    1.823137
     31          1           0       -2.304518   -1.498828    0.713086
     32          1           0       -4.215397   -2.642746   -0.460230
     33          1           0       -5.355133   -1.876166    0.656129
     34          1           0       -4.187118   -3.063417    1.260685
 ---------------------------------------------------------------------

 SCF Done:  E(RHF) =  -669.536564841     A.U. after   15 cycles
 E2 =    -0.2091945302D+01 EUMP2 =    -0.67162851014319D+03

 The electronic state is 1-A.
 Alpha  occ. eigenvalues --  -20.60999 -20.60986 -15.86024 -11.31314 -11.27868
 Alpha  occ. eigenvalues --  -11.27862 -11.27597 -11.26872 -11.26859 -11.21394
 Alpha  occ. eigenvalues --  -11.21060 -11.21049 -11.20768 -11.20627 -11.20228
 Alpha  occ. eigenvalues --   -1.60052  -1.39609  -1.19477  -1.08886  -1.07941
 Alpha  occ. eigenvalues --   -1.04865  -1.03014  -0.95733  -0.95511  -0.86531
 Alpha  occ. eigenvalues --   -0.86266  -0.82568  -0.79120  -0.77778  -0.77563
 Alpha  occ. eigenvalues --   -0.72249  -0.71364  -0.70580  -0.65136  -0.64867
 Alpha  occ. eigenvalues --   -0.64552  -0.62210  -0.60391  -0.58910  -0.57102
 Alpha  occ. eigenvalues --   -0.55370  -0.54805  -0.53200  -0.52954  -0.52210
 Alpha  occ. eigenvalues --   -0.51936  -0.49462  -0.49012  -0.48996  -0.47432
 Alpha  occ. eigenvalues --   -0.46146  -0.45412  -0.45250  -0.44717  -0.43283
 Alpha  occ. eigenvalues --   -0.37452  -0.36458
 Alpha virt. eigenvalues --    0.04862   0.11120   0.16348   0.21140   0.23258
 Alpha virt. eigenvalues --    0.24810   0.26059   0.27256   0.27620   0.28321
 Alpha virt. eigenvalues --    0.28958   0.30995   0.31768   0.31941   0.32599

 Mulliken charges:
               1
     1  C   -0.170546
     2  C   -0.218460
     3  C   -0.170949
     4  C    0.157153
     5  C   -0.170906
     6  C   -0.218544
     7  H    0.226283
     8  H    0.223950
     9  H    0.275787
    10  H    0.277375
    11  H    0.224590
    12  N    0.492402
    13  O   -0.464652
    14  O   -0.458468
    15  C   -0.299645
    16  C   -0.299090
    17  C   -0.475818
    18  H    0.144466
    19  H    0.149352
    20  H    0.151728
    21  H    0.153681
    22  H    0.153571
    23  H    0.152045
    24  H    0.159563
    25  C   -0.296706
    26  C   -0.312977
    27  C   -0.474418
    28  H    0.146021
    29  H    0.152415
    30  H    0.143503
    31  H    0.179461
    32  H    0.157911
    33  H    0.149730
    34  H    0.160194
 Sum of Mulliken charges =  -0.00000

 Dipole moment (field-independent basis, Debye):
    X=              3.0286    Y=              3.9056    Z=              1.6032  Tot=              5.1958
 Quadrupole moment (field-independent basis, Debye-Ang):
   XX=            -81.2570   YY=           -101.6556   ZZ=            -91.8047
   XY=              6.2459   XZ=              0.6939   YZ=             -0.3492

 Normal termination of Gaussian 16 at Thu May  6 04:38:31 2021.
