 Gaussian 16, Revision A.03,
 Gaussian 16:  EM64L-G16RevA.03 25-Dec-2016

 -------------
 #p 6-31g* mp2
 -------------

 ------------------------------------------------------
 Input file generated by CHIRIPA (05-May-2021 14:57:25)
 ------------------------------------------------------
 Symbolic Z-matrix:
 Charge =  0 Multiplicity = 1

                         Standard orientation:
 ---------------------------------------------------------------------
 Center     Atomic      Atomic             Coordinates (Angstroms)
 Number     Number       Type             X           Y           Z
 ---------------------------------------------------------------------
      1          6           0        0.850694   -1.751355   -0.411779
      2          6           0        1.344841   -1.658563    0.893491
      3          6           0        2.512796   -0.938233    1.160984
      4          6           0        3.164164   -0.320356    0.094570
      5          6           0        2.696839   -0.394448   -1.216692
      6          6           0        1.527078   -1.120114   -1.460855
      7          1           0       -0.057303   -2.312998   -0.610512
      8          1           0        0.821636   -2.147772    1.710178
      9          1           0        2.917412   -0.850197    2.161960
     10          1           0        3.240353    0.103983   -2.010151
     11          1           0        1.145630   -1.190480   -2.475543
     12          7           0        4.401582    0.445050    0.365404
     13          8           0        4.956900    0.980313   -0.591546
     14          8           0        4.792721    0.495219    1.529504
     15          6           0       -4.446734   -1.550760    0.358897
     16          6           0       -3.395548   -1.636908   -0.559857
     17          6           0       -2.565564   -0.536598   -0.794364
     18          6           0       -2.816512    0.639593   -0.089458
     19          6           0       -3.855764    0.756624    0.832252
     20          6           0       -4.673088   -0.356375    1.050799
     21          1           0       -5.086568   -2.410436    0.534869
     22          1           0       -3.217407   -2.563207   -1.098634
     23          1           0       -1.744650   -0.575760   -1.500043
     24          1           0       -4.008564    1.693459    1.354183
     25          1           0       -5.488706   -0.286586    1.764901
     26          7           0       -1.944547    1.811158   -0.329272
     27          8           0       -2.186553    2.836024    0.304542
     28          8           0       -1.035606    1.682381   -1.146511
 ---------------------------------------------------------------------

 SCF Done:  E(RHF) =  -868.335972397     A.U. after   16 cycles
 E2 =    -0.2602176462D+01 EUMP2 =    -0.87093814885932D+03

 The electronic state is 1-A.
 Alpha  occ. eigenvalues --  -20.61280 -20.61270 -20.60385 -20.60374 -15.86337
 Alpha  occ. eigenvalues --  -15.85438 -11.31896 -11.30854 -11.28564 -11.28451
 Alpha  occ. eigenvalues --  -11.28256 -11.27614 -11.27476 -11.27455 -11.27407
 Alpha  occ. eigenvalues --  -11.27323 -11.26548 -11.26529  -1.60344  -1.59452
 Alpha  occ. eigenvalues --   -1.39894  -1.39006  -1.20098  -1.19048  -1.09439
 Alpha  occ. eigenvalues --   -1.08480  -1.05549  -1.04462  -0.96252  -0.95299
 Alpha  occ. eigenvalues --   -0.86919  -0.85893  -0.83097  -0.82122  -0.78117
 Alpha  occ. eigenvalues --   -0.77125  -0.72559  -0.71673  -0.71666  -0.71250
 Alpha  occ. eigenvalues --   -0.70765  -0.70242  -0.65746  -0.65550  -0.64736
 Alpha  occ. eigenvalues --   -0.64521  -0.62888  -0.61818  -0.56014  -0.55140
 Alpha  occ. eigenvalues --   -0.53811  -0.53647  -0.52727  -0.52595  -0.49325
 Alpha  occ. eigenvalues --   -0.49294  -0.48428  -0.48408  -0.45256  -0.44400
 Alpha  occ. eigenvalues --   -0.38083  -0.37403  -0.36778  -0.36006
 Alpha virt. eigenvalues --    0.04382   0.05423   0.10499   0.11508   0.15744
 Alpha virt. eigenvalues --    0.16905   0.19523   0.22053   0.25653   0.26635
 Alpha virt. eigenvalues --    0.27754   0.29569   0.29950   0.31476   0.32106

 Mulliken charges:
               1
     1  C   -0.172474
     2  C   -0.219249
     3  C   -0.170062
     4  C    0.160207
     5  C   -0.164789
     6  C   -0.208804
     7  H    0.214120
     8  H    0.220691
     9  H    0.274977
    10  H    0.277368
    11  H    0.220179
    12  N    0.488347
    13  O   -0.459071
    14  O   -0.461417
    15  C   -0.170486
    16  C   -0.223659
    17  C   -0.171117
    18  C    0.158357
    19  C   -0.169843
    20  C   -0.218659
    21  H    0.227482
    22  H    0.220214
    23  H    0.271407
    24  H    0.278635
    25  H    0.226260
    26  N    0.488389
    27  O   -0.457319
    28  O   -0.459685
 Sum of Mulliken charges =  -0.00000

 Dipole moment (field-independent basis, Debye):
    X=             -7.4343    Y=             -6.5311    Z=             -0.0568  Tot=              9.8959
 Quadrupole moment (field-independent basis, Debye-Ang):
   XX=           -114.0356   YY=           -108.2797   ZZ=            -98.6958
   XY=              1.0509   XZ=             -8.6044   YZ=              1.6412

 Normal termination of Gaussian 16 at Thu May  6 09:52:58 2021.
