 Gaussian 16, Revision A.03,
 Gaussian 16:  EM64L-G16RevA.03 25-Dec-2016

 -------------
 #p 6-31g* mp2
 -------------

 ------------------------------------------------------
 Input file generated by CHIRIPA (05-May-2021 14:51:12)
 ------------------------------------------------------
 Symbolic Z-matrix:
 Charge =  0 Multiplicity = 1

                         Standard orientation:
 ---------------------------------------------------------------------
 Center     Atomic      Atomic             Coordinates (Angstroms)
 Number     Number       Type             X           Y           Z
 ---------------------------------------------------------------------
      1          6           0       -3.215222    0.725688    0.016609
      2          6           0       -3.021126    1.890860   -0.954311
      3          6           0       -2.777853    3.220921   -0.240484
      4          1           0       -4.061865    0.947261    0.680722
      5          1           0       -2.327810    0.641147    0.659063
      6          1           0       -3.908056    1.972308   -1.595668
      7          1           0       -2.174968    1.666402   -1.616316
      8          1           0       -1.881746    3.163715    0.385870
      9          1           0       -3.624681    3.471359    0.406636
     10          1           0       -2.641748    4.040137   -0.953379
     11          6           0       -3.459439   -0.610752   -0.681973
     12          6           0       -3.653535   -1.775924    0.288947
     13          6           0       -3.896808   -3.105985   -0.424880
     14          1           0       -4.346852   -0.526211   -1.324427
     15          1           0       -2.612797   -0.832325   -1.346086
     16          1           0       -4.499694   -1.551466    0.950952
     17          1           0       -2.766606   -1.857372    0.930304
     18          1           0       -3.049980   -3.356423   -1.072000
     19          1           0       -4.792916   -3.048779   -1.051234
     20          1           0       -4.032914   -3.925201    0.288016
     21          6           0        2.738670    0.366012    0.546461
     22          6           0        1.770075   -0.375125    1.468700
     23          6           0        0.577582    0.485192    1.887756
     24          1           0        3.098341    1.271347    1.054349
     25          1           0        2.196720    0.703684   -0.347778
     26          1           0        2.314002   -0.712501    2.360292
     27          1           0        1.412815   -1.278902    0.958631
     28          1           0        0.009934    0.810587    1.009977
     29          1           0        0.916242    1.380206    2.419601
     30          1           0       -0.101982   -0.064224    2.546691
     31          6           0        3.935991   -0.480949    0.118903
     32          6           0        4.904587    0.260189   -0.803336
     33          6           0        6.097079   -0.600128   -1.222392
     34          1           0        4.477942   -0.818620    1.013142
     35          1           0        3.576320   -1.386283   -0.388985
     36          1           0        5.261846    1.163966   -0.293267
     37          1           0        4.360660    0.597565   -1.694929
     38          1           0        5.758420   -1.495142   -1.754238
     39          1           0        6.664727   -0.925523   -0.344613
     40          1           0        6.776643   -0.050712   -1.881327
 ---------------------------------------------------------------------

 SCF Done:  E(RHF) =  -470.733174340     A.U. after   11 cycles
 E2 =    -0.1582953890D+01 EUMP2 =    -0.47231612822997D+03

 The electronic state is 1-A.
 Alpha  occ. eigenvalues --  -11.21687 -11.21639 -11.21579 -11.21571 -11.21466
 Alpha  occ. eigenvalues --  -11.21403 -11.21354 -11.21259 -11.21175 -11.21100
 Alpha  occ. eigenvalues --  -11.21061 -11.21030  -1.08494  -1.08390  -1.03599
 Alpha  occ. eigenvalues --   -1.03499  -0.96055  -0.95941  -0.87078  -0.86956
 Alpha  occ. eigenvalues --   -0.79678  -0.79550  -0.78314  -0.78188  -0.65192
 Alpha  occ. eigenvalues --   -0.64981  -0.61046  -0.60858  -0.59415  -0.59314
 Alpha  occ. eigenvalues --   -0.57654  -0.57556  -0.55424  -0.55162  -0.52758
 Alpha  occ. eigenvalues --   -0.52641  -0.52482  -0.52361  -0.50094  -0.49816
 Alpha  occ. eigenvalues --   -0.48024  -0.47847  -0.46787  -0.46550  -0.45899
 Alpha  occ. eigenvalues --   -0.45796  -0.45726  -0.45458  -0.43838  -0.43745
 Alpha virt. eigenvalues --    0.20696   0.23089   0.23832   0.24505   0.26046
 Alpha virt. eigenvalues --    0.26680   0.27067   0.27552   0.28013   0.29700
 Alpha virt. eigenvalues --    0.30099   0.31624   0.31667   0.31888   0.32051

 Mulliken charges:
               1
     1  C   -0.306999
     2  C   -0.299352
     3  C   -0.477058
     4  H    0.149395
     5  H    0.159106
     6  H    0.151900
     7  H    0.150651
     8  H    0.156607
     9  H    0.155273
    10  H    0.159972
    11  C   -0.297581
    12  C   -0.299994
    13  C   -0.475623
    14  H    0.149368
    15  H    0.148636
    16  H    0.151980
    17  H    0.152169
    18  H    0.154866
    19  H    0.155198
    20  H    0.160154
    21  C   -0.298659
    22  C   -0.299648
    23  C   -0.481608
    24  H    0.149970
    25  H    0.149521
    26  H    0.152496
    27  H    0.151877
    28  H    0.159644
    29  H    0.156072
    30  H    0.161141
    31  C   -0.298366
    32  C   -0.299715
    33  C   -0.475749
    34  H    0.149725
    35  H    0.149680
    36  H    0.152076
    37  H    0.151972
    38  H    0.155225
    39  H    0.155261
    40  H    0.160412
 Sum of Mulliken charges =  -0.00000

 Dipole moment (field-independent basis, Debye):
    X=              0.0438    Y=              0.0037    Z=              0.0343  Tot=              0.0558
 Quadrupole moment (field-independent basis, Debye-Ang):
   XX=            -84.3858   YY=            -86.0135   ZZ=            -84.3951
   XY=              0.2603   XZ=              0.6656   YZ=             -0.2677

 Normal termination of Gaussian 16 at Wed May  5 16:47:31 2021.
