 Gaussian 16, Revision A.03,
 Gaussian 16:  EM64L-G16RevA.03 25-Dec-2016

 -------------
 #p 6-31g* mp2
 -------------

 ------------------------------------------------------
 Input file generated by CHIRIPA (05-May-2021 14:51:12)
 ------------------------------------------------------
 Symbolic Z-matrix:
 Charge =  0 Multiplicity = 1

                         Standard orientation:
 ---------------------------------------------------------------------
 Center     Atomic      Atomic             Coordinates (Angstroms)
 Number     Number       Type             X           Y           Z
 ---------------------------------------------------------------------
      1          6           0       -2.806364    0.287056    0.345056
      2          6           0       -3.984247    1.175079   -0.057424
      3          6           0       -4.017972    2.496504    0.711013
      4          1           0       -2.859851    0.084460    1.423499
      5          1           0       -1.868818    0.834618    0.176006
      6          1           0       -4.919232    0.625495    0.111035
      7          1           0       -3.928057    1.375427   -1.135069
      8          1           0       -3.101254    3.068367    0.534371
      9          1           0       -4.098061    2.314174    1.787554
     10          1           0       -4.867891    3.115751    0.407647
     11          6           0       -2.759047   -1.037552   -0.414485
     12          6           0       -1.581164   -1.925575   -0.012006
     13          6           0       -1.547439   -3.246999   -0.780442
     14          1           0       -3.696594   -1.585114   -0.245436
     15          1           0       -2.705560   -0.834956   -1.492928
     16          1           0       -1.637355   -2.125923    1.065640
     17          1           0       -0.646180   -1.375991   -0.180464
     18          1           0       -1.467350   -3.064670   -1.856984
     19          1           0       -2.464157   -3.818863   -0.603800
     20          1           0       -0.697520   -3.866247   -0.477076
     21          6           0        2.940285    1.096979    0.228891
     22          6           0        2.431855    2.122480   -0.784930
     23          6           0        2.754721    3.561794   -0.382528
     24          1           0        2.498775    1.312306    1.211564
     25          1           0        4.027147    1.211879    0.342589
     26          1           0        1.346481    2.004759   -0.897713
     27          1           0        2.874478    1.904572   -1.765346
     28          1           0        3.836445    3.702213   -0.288938
     29          1           0        2.299765    3.802970    0.583625
     30          1           0        2.382253    4.278348   -1.121227
     31          6           0        2.625126   -0.346483   -0.159461
     32          6           0        3.133556   -1.371985    0.854359
     33          6           0        2.810690   -2.811298    0.451957
     34          1           0        1.538265   -0.461383   -0.273159
     35          1           0        3.066636   -0.561810   -1.142135
     36          1           0        2.690934   -1.154075    1.834776
     37          1           0        4.218931   -1.254264    0.967143
     38          1           0        3.265646   -3.052474   -0.514195
     39          1           0        1.728967   -2.951717    0.358368
     40          1           0        3.183159   -3.527851    1.190657
 ---------------------------------------------------------------------

 SCF Done:  E(RHF) =  -470.733193230     A.U. after   11 cycles
 E2 =    -0.1583761079D+01 EUMP2 =    -0.47231695430933D+03

 The electronic state is 1-A.
 Alpha  occ. eigenvalues --  -11.21648 -11.21641 -11.21641 -11.21597 -11.21460
 Alpha  occ. eigenvalues --  -11.21415 -11.21399 -11.21354 -11.21103 -11.21102
 Alpha  occ. eigenvalues --  -11.21096 -11.21049  -1.08491  -1.08437  -1.03591
 Alpha  occ. eigenvalues --   -1.03526  -0.96030  -0.95980  -0.87055  -0.86988
 Alpha  occ. eigenvalues --   -0.79669  -0.79585  -0.78370  -0.78193  -0.65238
 Alpha  occ. eigenvalues --   -0.64968  -0.61074  -0.60861  -0.59437  -0.59308
 Alpha  occ. eigenvalues --   -0.57699  -0.57541  -0.55304  -0.55279  -0.52733
 Alpha  occ. eigenvalues --   -0.52681  -0.52526  -0.52324  -0.50017  -0.49881
 Alpha  occ. eigenvalues --   -0.47996  -0.47901  -0.46866  -0.46549  -0.46118
 Alpha  occ. eigenvalues --   -0.45806  -0.45773  -0.45248  -0.43829  -0.43795
 Alpha virt. eigenvalues --    0.20146   0.22462   0.23478   0.24891   0.25076
 Alpha virt. eigenvalues --    0.26386   0.26951   0.27201   0.28763   0.29800
 Alpha virt. eigenvalues --    0.30450   0.30627   0.31593   0.31743   0.31955

 Mulliken charges:
               1
     1  C   -0.298669
     2  C   -0.299708
     3  C   -0.475775
     4  H    0.149776
     5  H    0.148659
     6  H    0.152184
     7  H    0.152165
     8  H    0.155201
     9  H    0.155185
    10  H    0.160478
    11  C   -0.297575
    12  C   -0.310329
    13  C   -0.478099
    14  H    0.149912
    15  H    0.149907
    16  H    0.151950
    17  H    0.160715
    18  H    0.155659
    19  H    0.155549
    20  H    0.162818
    21  C   -0.297658
    22  C   -0.299821
    23  C   -0.475773
    24  H    0.149933
    25  H    0.149719
    26  H    0.150894
    27  H    0.152107
    28  H    0.155415
    29  H    0.155395
    30  H    0.160228
    31  C   -0.307604
    32  C   -0.298723
    33  C   -0.481751
    34  H    0.157507
    35  H    0.149639
    36  H    0.152104
    37  H    0.151954
    38  H    0.155093
    39  H    0.161184
    40  H    0.160153
 Sum of Mulliken charges =  -0.00000

 Dipole moment (field-independent basis, Debye):
    X=             -0.0144    Y=             -0.0072    Z=             -0.0015  Tot=              0.0162
 Quadrupole moment (field-independent basis, Debye-Ang):
   XX=            -83.6619   YY=            -86.7542   ZZ=            -84.2325
   XY=              0.2278   XZ=             -0.8174   YZ=             -0.9096

 Normal termination of Gaussian 16 at Thu May  6 00:45:23 2021.
