 Gaussian 16, Revision A.03,
 Gaussian 16:  EM64L-G16RevA.03 25-Dec-2016

 -------------
 #p 6-31g* mp2
 -------------

 ------------------------------------------------------
 Input file generated by CHIRIPA (05-May-2021 14:53:12)
 ------------------------------------------------------
 Symbolic Z-matrix:
 Charge =  0 Multiplicity = 1

                         Standard orientation:
 ---------------------------------------------------------------------
 Center     Atomic      Atomic             Coordinates (Angstroms)
 Number     Number       Type             X           Y           Z
 ---------------------------------------------------------------------
      1          6           0        3.137407   -0.226819    0.908131
      2          6           0        1.687533   -0.372470    0.444843
      3          6           0        0.708854   -0.536268    1.608093
      4          1           0        3.416053   -1.107861    1.502324
      5          1           0        3.215352    0.639987    1.578927
      6          1           0        1.612615   -1.237920   -0.225977
      7          1           0        1.412366    0.508933   -0.148478
      8          1           0        0.754176    0.331014    2.274703
      9          1           0        0.955562   -1.425764    2.196763
     10          1           0       -0.321763   -0.638714    1.254266
     11          6           0        4.127709   -0.062211   -0.243361
     12          6           0        5.577583    0.083440    0.219927
     13          6           0        6.556262    0.247238   -0.943324
     14          1           0        4.049764   -0.929016   -0.914158
     15          1           0        3.849063    0.818832   -0.837555
     16          1           0        5.852750   -0.797962    0.813247
     17          1           0        5.652501    0.948890    0.890746
     18          1           0        6.309554    1.136734   -1.531994
     19          1           0        6.510940   -0.620044   -1.609934
     20          1           0        7.586879    0.349684   -0.589497
     21          6           0       -2.578184    2.617962   -0.107595
     22          6           0       -3.681669    1.991611    0.481071
     23          6           0       -3.835814    0.604274    0.403057
     24          6           0       -2.863048   -0.129278   -0.274378
     25          6           0       -1.752534    0.465615   -0.871164
     26          6           0       -1.618831    1.854311   -0.780647
     27          1           0       -2.466381    3.696207   -0.042136
     28          1           0       -4.428282    2.582147    1.004406
     29          1           0       -4.680313    0.093647    0.849708
     30          1           0       -1.024781   -0.149659   -1.386169
     31          1           0       -0.760825    2.338047   -1.238764
     32          7           0       -3.015414   -1.598709   -0.363586
     33          8           0       -2.144469   -2.222513   -0.966049
     34          8           0       -4.002898   -2.098819    0.170644
 ---------------------------------------------------------------------

 SCF Done:  E(RHF) =  -669.534454079     A.U. after   15 cycles
 E2 =    -0.2093792653D+01 EUMP2 =    -0.67162824673240D+03

 The electronic state is 1-A.
 Alpha  occ. eigenvalues --  -20.60824 -20.60809 -15.85861 -11.31188 -11.27798
 Alpha  occ. eigenvalues --  -11.27758 -11.27540 -11.26786 -11.26774 -11.21789
 Alpha  occ. eigenvalues --  -11.21736 -11.21565 -11.21503 -11.21195 -11.20977
 Alpha  occ. eigenvalues --   -1.59889  -1.39442  -1.19401  -1.08793  -1.08578
 Alpha  occ. eigenvalues --   -1.04805  -1.03639  -0.96081  -0.95618  -0.87092
 Alpha  occ. eigenvalues --   -0.86191  -0.82458  -0.79730  -0.78418  -0.77494
 Alpha  occ. eigenvalues --   -0.72080  -0.71226  -0.70508  -0.65220  -0.65035
 Alpha  occ. eigenvalues --   -0.64794  -0.62170  -0.61032  -0.59480  -0.57740
 Alpha  occ. eigenvalues --   -0.55354  -0.55290  -0.53390  -0.52881  -0.52633
 Alpha  occ. eigenvalues --   -0.52287  -0.50003  -0.48843  -0.48835  -0.48040
 Alpha  occ. eigenvalues --   -0.46760  -0.45950  -0.45860  -0.44845  -0.43902
 Alpha  occ. eigenvalues --   -0.37350  -0.36331
 Alpha virt. eigenvalues --    0.04998   0.11206   0.16414   0.20756   0.22824
 Alpha virt. eigenvalues --    0.24167   0.25818   0.26497   0.27685   0.28044
 Alpha virt. eigenvalues --    0.28797   0.29982   0.31488   0.31645   0.32183

 Mulliken charges:
               1
     1  C   -0.298159
     2  C   -0.303218
     3  C   -0.475667
     4  H    0.152975
     5  H    0.148206
     6  H    0.159485
     7  H    0.139016
     8  H    0.151626
     9  H    0.159018
    10  H    0.163025
    11  C   -0.298189
    12  C   -0.299739
    13  C   -0.475757
    14  H    0.151760
    15  H    0.145440
    16  H    0.153534
    17  H    0.151178
    18  H    0.153852
    19  H    0.156300
    20  H    0.160773
    21  C   -0.170737
    22  C   -0.218634
    23  C   -0.171082
    24  C    0.157909
    25  C   -0.172534
    26  C   -0.217053
    27  H    0.225742
    28  H    0.223548
    29  H    0.275853
    30  H    0.279193
    31  H    0.223601
    32  N    0.489244
    33  O   -0.460486
    34  O   -0.460024
 Sum of Mulliken charges =  -0.00000

 Dipole moment (field-independent basis, Debye):
    X=              0.5114    Y=              5.1000    Z=              0.3341  Tot=              5.1364
 Quadrupole moment (field-independent basis, Debye-Ang):
   XX=            -94.9147   YY=            -95.5835   ZZ=            -94.7733
   XY=            -15.8437   XZ=             -3.0019   YZ=             -1.1883

 Normal termination of Gaussian 16 at Wed May  5 18:32:40 2021.
