 Gaussian 16, Revision A.03,
 Gaussian 16:  EM64L-G16RevA.03 25-Dec-2016

 -------------
 #p 6-31g* mp2
 -------------

 ------------------------------------------------------
 Input file generated by CHIRIPA (05-May-2021 14:51:09)
 ------------------------------------------------------
 Symbolic Z-matrix:
 Charge =  0 Multiplicity = 1

                         Standard orientation:
 ---------------------------------------------------------------------
 Center     Atomic      Atomic             Coordinates (Angstroms)
 Number     Number       Type             X           Y           Z
 ---------------------------------------------------------------------
      1          6           0        2.525887   -0.535462    0.313190
      2          6           0        1.742387   -1.802382   -0.031813
      3          6           0        0.306428   -1.770559    0.492405
      4          1           0        2.535016   -0.403210    1.403773
      5          1           0        2.001867    0.336087   -0.102983
      6          1           0        2.268459   -2.671411    0.383702
      7          1           0        1.735285   -1.931737   -1.121691
      8          1           0       -0.239822   -0.921882    0.068191
      9          1           0        0.296381   -1.665758    1.582137
     10          1           0       -0.235447   -2.685854    0.234595
     11          6           0        3.963182   -0.552294   -0.204137
     12          6           0        4.746682    0.714625    0.140867
     13          6           0        6.182640    0.682803   -0.383352
     14          1           0        4.487202   -1.423844    0.212036
     15          1           0        3.954053   -0.684546   -1.294720
     16          1           0        4.753784    0.843980    1.230744
     17          1           0        4.220609    1.583654   -0.274649
     18          1           0        6.192687    0.578001   -1.473084
     19          1           0        6.728891   -0.165875    0.040862
     20          1           0        6.724515    1.598098   -0.125542
     21          6           0       -3.804494    0.050934   -0.218488
     22          6           0       -3.426746   -1.406494    0.048341
     23          6           0       -4.557244   -2.380647   -0.284516
     24          1           0       -4.695684    0.305940    0.371170
     25          1           0       -4.086291    0.161915   -1.274740
     26          1           0       -3.144416   -1.514406    1.103452
     27          1           0       -2.536238   -1.658003   -0.541874
     28          1           0       -4.834832   -2.302289   -1.340645
     29          1           0       -5.446466   -2.157876    0.314031
     30          1           0       -4.265724   -3.416793   -0.086329
     31          6           0       -2.684575    1.036822    0.109435
     32          6           0       -3.062323    2.494250   -0.157394
     33          6           0       -1.931824    3.468403    0.175464
     34          1           0       -2.402778    0.925842    1.165687
     35          1           0       -1.793384    0.781817   -0.480223
     36          1           0       -3.952830    2.745759    0.432821
     37          1           0       -3.344652    2.602162   -1.212505
     38          1           0       -1.042602    3.245633   -0.423084
     39          1           0       -1.654236    3.390046    1.231592
     40          1           0       -2.223344    4.504549   -0.022724
 ---------------------------------------------------------------------

 SCF Done:  E(RHF) =  -470.731980131     A.U. after   11 cycles
 E2 =    -0.1583891495D+01 EUMP2 =    -0.47231587162624D+03

 The electronic state is 1-A.
 Alpha  occ. eigenvalues --  -11.21604 -11.21585 -11.21542 -11.21455 -11.21389
 Alpha  occ. eigenvalues --  -11.21382 -11.21322 -11.21317 -11.21083 -11.21059
 Alpha  occ. eigenvalues --  -11.21003 -11.20925  -1.08432  -1.08378  -1.03523
 Alpha  occ. eigenvalues --   -1.03463  -0.95964  -0.95937  -0.87004  -0.86936
 Alpha  occ. eigenvalues --   -0.79679  -0.79483  -0.78318  -0.78089  -0.65129
 Alpha  occ. eigenvalues --   -0.64961  -0.60954  -0.60846  -0.59428  -0.59216
 Alpha  occ. eigenvalues --   -0.57693  -0.57433  -0.55307  -0.55193  -0.52753
 Alpha  occ. eigenvalues --   -0.52613  -0.52382  -0.52306  -0.49941  -0.49896
 Alpha  occ. eigenvalues --   -0.47924  -0.47855  -0.46761  -0.46572  -0.45920
 Alpha  occ. eigenvalues --   -0.45748  -0.45653  -0.45224  -0.43777  -0.43677
 Alpha virt. eigenvalues --    0.21792   0.23184   0.23981   0.24162   0.25808
 Alpha virt. eigenvalues --    0.26373   0.27141   0.27580   0.27656   0.29657
 Alpha virt. eigenvalues --    0.30698   0.31305   0.31612   0.31771   0.32325

 Mulliken charges:
               1
     1  C   -0.298198
     2  C   -0.300261
     3  C   -0.481557
     4  H    0.149689
     5  H    0.148981
     6  H    0.151439
     7  H    0.150926
     8  H    0.163985
     9  H    0.154181
    10  H    0.160629
    11  C   -0.298203
    12  C   -0.299597
    13  C   -0.475683
    14  H    0.149536
    15  H    0.149397
    16  H    0.151964
    17  H    0.151898
    18  H    0.155085
    19  H    0.155149
    20  H    0.160235
    21  C   -0.298245
    22  C   -0.303097
    23  C   -0.475612
    24  H    0.149320
    25  H    0.148772
    26  H    0.152765
    27  H    0.157924
    28  H    0.154533
    29  H    0.154641
    30  H    0.159727
    31  C   -0.301719
    32  C   -0.298974
    33  C   -0.475530
    34  H    0.150669
    35  H    0.151121
    36  H    0.152142
    37  H    0.151721
    38  H    0.154399
    39  H    0.155521
    40  H    0.160324
 Sum of Mulliken charges =  -0.00000

 Dipole moment (field-independent basis, Debye):
    X=             -0.0130    Y=              0.0083    Z=              0.0161  Tot=              0.0223
 Quadrupole moment (field-independent basis, Debye-Ang):
   XX=            -86.4617   YY=            -85.3893   ZZ=            -83.2107
   XY=             -0.9008   XZ=              0.0984   YZ=             -0.4136

 Normal termination of Gaussian 16 at Wed May  5 15:07:01 2021.
