 Gaussian 16, Revision A.03,
 Gaussian 16:  EM64L-G16RevA.03 25-Dec-2016

 -------------
 #p 6-31g* mp2
 -------------

 ------------------------------------------------------
 Input file generated by CHIRIPA (05-May-2021 14:55:23)
 ------------------------------------------------------
 Symbolic Z-matrix:
 Charge =  0 Multiplicity = 1

                         Standard orientation:
 ---------------------------------------------------------------------
 Center     Atomic      Atomic             Coordinates (Angstroms)
 Number     Number       Type             X           Y           Z
 ---------------------------------------------------------------------
      1          6           0       -2.045684    2.088490   -1.047181
      2          6           0       -1.092538    1.073818   -1.183104
      3          6           0       -1.357889   -0.216817   -0.715774
      4          6           0       -2.592287   -0.458745   -0.114922
      5          6           0       -3.562372    0.531058    0.035129
      6          6           0       -3.275391    1.814355   -0.439570
      7          1           0       -1.831152    3.088236   -1.413077
      8          1           0       -0.136680    1.283830   -1.654565
      9          1           0       -0.638033   -1.020995   -0.808093
     10          1           0       -4.506243    0.291302    0.509517
     11          1           0       -4.017507    2.600407   -0.332657
     12          7           0       -2.884652   -1.821198    0.383720
     13          8           0       -3.979737   -2.008667    0.909345
     14          8           0       -2.013187   -2.675822    0.239489
     15          6           0        3.868279   -0.010432   -0.083672
     16          6           0        3.890134   -1.537658   -0.012345
     17          6           0        5.120237   -2.143504   -0.688799
     18          1           0        3.900502    0.301615   -1.136541
     19          1           0        4.778908    0.384756    0.387470
     20          1           0        2.979074   -1.929798   -0.482252
     21          1           0        3.857660   -1.846108    1.040470
     22          1           0        6.038221   -1.780307   -0.215517
     23          1           0        5.154642   -1.864471   -1.746890
     24          1           0        5.115593   -3.236163   -0.626066
     25          6           0        2.644623    0.609974    0.588260
     26          6           0        2.622768    2.137200    0.516933
     27          6           0        1.392664    2.743046    1.193387
     28          1           0        1.733994    0.214787    0.117117
     29          1           0        2.612399    0.297927    1.641130
     30          1           0        2.655241    2.445651   -0.535882
     31          1           0        3.533828    2.529340    0.986839
     32          1           0        1.358261    2.464014    2.251479
     33          1           0        0.474681    2.379849    0.720105
     34          1           0        1.397309    3.835705    1.130654
 ---------------------------------------------------------------------

 SCF Done:  E(RHF) =  -669.534519249     A.U. after   15 cycles
 E2 =    -0.2093719465D+01 EUMP2 =    -0.67162823871312D+03

 The electronic state is 1-A.
 Alpha  occ. eigenvalues --  -20.60815 -20.60809 -15.85870 -11.31272 -11.27843
 Alpha  occ. eigenvalues --  -11.27836 -11.27583 -11.26862 -11.26852 -11.22163
 Alpha  occ. eigenvalues --  -11.21897 -11.21851 -11.21759 -11.21433 -11.21242
 Alpha  occ. eigenvalues --   -1.59889  -1.39441  -1.19458  -1.08890  -1.08821
 Alpha  occ. eigenvalues --   -1.04873  -1.03902  -0.96352  -0.95665  -0.87367
 Alpha  occ. eigenvalues --   -0.86258  -0.82503  -0.79975  -0.78673  -0.77536
 Alpha  occ. eigenvalues --   -0.72088  -0.71212  -0.70549  -0.65589  -0.65107
 Alpha  occ. eigenvalues --   -0.64838  -0.62234  -0.61282  -0.59719  -0.57957
 Alpha  occ. eigenvalues --   -0.55689  -0.55349  -0.53269  -0.53024  -0.52947
 Alpha  occ. eigenvalues --   -0.52694  -0.50292  -0.48850  -0.48840  -0.48267
 Alpha  occ. eigenvalues --   -0.47028  -0.46192  -0.46146  -0.44838  -0.44175
 Alpha  occ. eigenvalues --   -0.37387  -0.36392
 Alpha virt. eigenvalues --    0.04956   0.11095   0.16323   0.19448   0.23077
 Alpha virt. eigenvalues --    0.23740   0.24984   0.26397   0.27545   0.28337
 Alpha virt. eigenvalues --    0.29924   0.30358   0.31265   0.31674   0.31769

 Mulliken charges:
               1
     1  C   -0.170019
     2  C   -0.220881
     3  C   -0.170406
     4  C    0.158240
     5  C   -0.170648
     6  C   -0.218058
     7  H    0.227168
     8  H    0.227042
     9  H    0.276192
    10  H    0.276096
    11  H    0.224170
    12  N    0.488163
    13  O   -0.460150
    14  O   -0.460008
    15  C   -0.298593
    16  C   -0.299605
    17  C   -0.476056
    18  H    0.146323
    19  H    0.151633
    20  H    0.150860
    21  H    0.155611
    22  H    0.155594
    23  H    0.154092
    24  H    0.163303
    25  C   -0.300467
    26  C   -0.300041
    27  C   -0.484949
    28  H    0.142971
    29  H    0.155317
    30  H    0.144537
    31  H    0.155322
    32  H    0.158806
    33  H    0.161184
    34  H    0.157256
 Sum of Mulliken charges =  -0.00000

 Dipole moment (field-independent basis, Debye):
    X=              0.9932    Y=              4.7191    Z=             -1.6925  Tot=              5.1109
 Quadrupole moment (field-independent basis, Debye-Ang):
   XX=            -96.1242   YY=            -99.7466   ZZ=            -93.9590
   XY=            -14.5376   XZ=              3.9822   YZ=              0.4886

 Normal termination of Gaussian 16 at Thu May  6 19:14:57 2021.
