 Gaussian 16, Revision A.03,
 Gaussian 16:  EM64L-G16RevA.03 25-Dec-2016

 -------------
 #p 6-31g* mp2
 -------------

 ------------------------------------------------------
 Input file generated by CHIRIPA (05-May-2021 14:51:12)
 ------------------------------------------------------
 Symbolic Z-matrix:
 Charge =  0 Multiplicity = 1

                         Standard orientation:
 ---------------------------------------------------------------------
 Center     Atomic      Atomic             Coordinates (Angstroms)
 Number     Number       Type             X           Y           Z
 ---------------------------------------------------------------------
      1          6           0        4.215832    0.394765   -0.153837
      2          6           0        3.062284    0.469620    0.847017
      3          6           0        1.879168    1.285733    0.325490
      4          1           0        4.549367    1.413108   -0.396069
      5          1           0        3.850303   -0.045819   -1.091744
      6          1           0        3.430208    0.908657    1.783229
      7          1           0        2.731582   -0.549027    1.087041
      8          1           0        1.484837    0.846566   -0.596592
      9          1           0        2.187432    2.312533    0.103552
     10          1           0        1.065905    1.326230    1.056806
     11          6           0        5.405990   -0.417776    0.353142
     12          6           0        6.559538   -0.492631   -0.647712
     13          6           0        7.742654   -1.308744   -0.126185
     14          1           0        5.771519    0.022808    1.291049
     15          1           0        5.072455   -1.436119    0.595374
     16          1           0        6.890240    0.526016   -0.887736
     17          1           0        6.191614   -0.931668   -1.583924
     18          1           0        7.434390   -2.335544    0.095753
     19          1           0        8.136985   -0.869577    0.795897
     20          1           0        8.555917   -1.349241   -0.857501
     21          6           0       -5.378408   -0.273318    0.324911
     22          6           0       -6.585624   -0.722378   -0.499080
     23          6           0       -7.712643   -1.289866    0.364389
     24          1           0       -5.002444   -1.125656    0.907248
     25          1           0       -5.701169    0.484260    1.052440
     26          1           0       -6.260418   -1.477876   -1.225771
     27          1           0       -6.958641    0.131080   -1.079669
     28          1           0       -8.065025   -0.539655    1.079660
     29          1           0       -7.362836   -2.157754    0.932728
     30          1           0       -8.565587   -1.604683   -0.244903
     31          6           0       -4.243413    0.296329   -0.524216
     32          6           0       -3.036198    0.745389    0.299775
     33          6           0       -1.909180    1.312877   -0.563694
     34          1           0       -3.920653   -0.461248   -1.251744
     35          1           0       -4.619378    1.148667   -1.106553
     36          1           0       -2.663182   -0.108069    0.880364
     37          1           0       -3.361404    1.500887    1.026467
     38          1           0       -2.258986    2.180765   -1.132032
     39          1           0       -1.556797    0.562666   -1.278965
     40          1           0       -1.056235    1.627694    0.045597
 ---------------------------------------------------------------------

 SCF Done:  E(RHF) =  -470.732745615     A.U. after   11 cycles
 E2 =    -0.1582420624D+01 EUMP2 =    -0.47231516623898D+03

 The electronic state is 1-A.
 Alpha  occ. eigenvalues --  -11.21600 -11.21591 -11.21577 -11.21535 -11.21403
 Alpha  occ. eigenvalues --  -11.21365 -11.21343 -11.21303 -11.21071 -11.21053
 Alpha  occ. eigenvalues --  -11.21048 -11.20901  -1.08428  -1.08384  -1.03541
 Alpha  occ. eigenvalues --   -1.03463  -0.96030  -0.95876  -0.87094  -0.86849
 Alpha  occ. eigenvalues --   -0.79655  -0.79480  -0.78241  -0.78198  -0.65060
 Alpha  occ. eigenvalues --   -0.65014  -0.60953  -0.60851  -0.59608  -0.59103
 Alpha  occ. eigenvalues --   -0.57660  -0.57459  -0.55322  -0.55154  -0.53057
 Alpha  occ. eigenvalues --   -0.52467  -0.52357  -0.52137  -0.49974  -0.49793
 Alpha  occ. eigenvalues --   -0.47929  -0.47831  -0.46651  -0.46544  -0.45783
 Alpha  occ. eigenvalues --   -0.45740  -0.45707  -0.45664  -0.43973  -0.43490
 Alpha virt. eigenvalues --    0.22419   0.23004   0.23607   0.24908   0.26490
 Alpha virt. eigenvalues --    0.26729   0.27016   0.27257   0.27636   0.29097
 Alpha virt. eigenvalues --    0.29523   0.31072   0.31675   0.31708   0.32171

 Mulliken charges:
               1
     1  C   -0.298667
     2  C   -0.299852
     3  C   -0.477861
     4  H    0.149687
     5  H    0.149575
     6  H    0.151712
     7  H    0.151874
     8  H    0.158373
     9  H    0.155225
    10  H    0.160495
    11  C   -0.298281
    12  C   -0.299619
    13  C   -0.475696
    14  H    0.149524
    15  H    0.149589
    16  H    0.151963
    17  H    0.151924
    18  H    0.155150
    19  H    0.155179
    20  H    0.160256
    21  C   -0.298181
    22  C   -0.299588
    23  C   -0.475668
    24  H    0.149461
    25  H    0.149412
    26  H    0.151825
    27  H    0.151905
    28  H    0.155144
    29  H    0.155102
    30  H    0.160157
    31  C   -0.298255
    32  C   -0.299604
    33  C   -0.481853
    34  H    0.149264
    35  H    0.149580
    36  H    0.151301
    37  H    0.151375
    38  H    0.154156
    39  H    0.153678
    40  H    0.170238
 Sum of Mulliken charges =  -0.00000

 Dipole moment (field-independent basis, Debye):
    X=              0.0396    Y=              0.0140    Z=              0.0003  Tot=              0.0420
 Quadrupole moment (field-independent basis, Debye-Ang):
   XX=            -86.3703   YY=            -83.6568   ZZ=            -84.9536
   XY=              0.1061   XZ=              0.3168   YZ=              0.7875

 Normal termination of Gaussian 16 at Wed May  5 19:53:55 2021.
