 Gaussian 16, Revision A.03,
 Gaussian 16:  EM64L-G16RevA.03 25-Dec-2016

 -------------
 #p 6-31g* mp2
 -------------

 ------------------------------------------------------
 Input file generated by CHIRIPA (05-May-2021 14:53:14)
 ------------------------------------------------------
 Symbolic Z-matrix:
 Charge =  0 Multiplicity = 1

                         Standard orientation:
 ---------------------------------------------------------------------
 Center     Atomic      Atomic             Coordinates (Angstroms)
 Number     Number       Type             X           Y           Z
 ---------------------------------------------------------------------
      1          6           0       -3.718211    1.064209   -0.328555
      2          6           0       -2.199673    0.890157   -0.370207
      3          6           0       -1.458995    2.210414   -0.584945
      4          1           0       -4.053834    1.526121   -1.267138
      5          1           0       -3.977878    1.766407    0.475737
      6          1           0       -1.943047    0.187429   -1.173283
      7          1           0       -1.867648    0.428430    0.568507
      8          1           0       -1.685939    2.915061    0.221634
      9          1           0       -1.761766    2.672691   -1.530053
     10          1           0       -0.374849    2.062819   -0.611453
     11          6           0       -4.472612   -0.246816   -0.114500
     12          6           0       -5.991149   -0.072764   -0.072848
     13          6           0       -6.731828   -1.393021    0.141890
     14          1           0       -4.212945   -0.949014   -0.918792
     15          1           0       -4.136988   -0.708728    0.824083
     16          1           0       -6.323175    0.388963   -1.011562
     17          1           0       -6.247776    0.629963    0.730229
     18          1           0       -6.429057   -1.855299    1.086998
     19          1           0       -6.504884   -2.097669   -0.664689
     20          1           0       -7.815974   -1.245427    0.168399
     21          6           0        0.864442   -0.835145    0.977517
     22          6           0        1.420952   -1.570552   -0.074146
     23          6           0        2.713891   -1.293432   -0.528088
     24          6           0        3.425289   -0.269423    0.095297
     25          6           0        2.898373    0.481027    1.145285
     26          6           0        1.603625    0.186497    1.582808
     27          1           0       -0.140646   -1.057181    1.323773
     28          1           0        0.849212   -2.364539   -0.546102
     29          1           0        3.169032   -1.847102   -1.340316
     30          1           0        3.492744    1.266546    1.595953
     31          1           0        1.173980    0.759265    2.399745
     32          7           0        4.795022    0.033167   -0.376581
     33          8           0        5.401139    0.940357    0.189340
     34          8           0        5.236567   -0.642583   -1.303423
 ---------------------------------------------------------------------

 SCF Done:  E(RHF) =  -669.535214525     A.U. after   15 cycles
 E2 =    -0.2092174928D+01 EUMP2 =    -0.67162738945275D+03

 The electronic state is 1-A.
 Alpha  occ. eigenvalues --  -20.60763 -20.60758 -15.85819 -11.31186 -11.27773
 Alpha  occ. eigenvalues --  -11.27764 -11.27487 -11.26783 -11.26760 -11.22436
 Alpha  occ. eigenvalues --  -11.22187 -11.22109 -11.22045 -11.21631 -11.21598
 Alpha  occ. eigenvalues --   -1.59840  -1.39393  -1.19371  -1.09129  -1.08757
 Alpha  occ. eigenvalues --   -1.04774  -1.04177  -0.96597  -0.95592  -0.87612
 Alpha  occ. eigenvalues --   -0.86167  -0.82432  -0.80266  -0.78960  -0.77470
 Alpha  occ. eigenvalues --   -0.72036  -0.71164  -0.70489  -0.65761  -0.65019
 Alpha  occ. eigenvalues --   -0.64772  -0.62120  -0.61583  -0.59981  -0.58234
 Alpha  occ. eigenvalues --   -0.55893  -0.55279  -0.53356  -0.53119  -0.52882
 Alpha  occ. eigenvalues --   -0.52860  -0.50542  -0.48801  -0.48791  -0.48549
 Alpha  occ. eigenvalues --   -0.47303  -0.46483  -0.46412  -0.44798  -0.44429
 Alpha  occ. eigenvalues --   -0.37302  -0.36378
 Alpha virt. eigenvalues --    0.05051   0.11227   0.16490   0.20298   0.22521
 Alpha virt. eigenvalues --    0.23904   0.25220   0.26259   0.27152   0.27545
 Alpha virt. eigenvalues --    0.28958   0.30422   0.31049   0.31341   0.32141

 Mulliken charges:
               1
     1  C   -0.298274
     2  C   -0.298596
     3  C   -0.479175
     4  H    0.152964
     5  H    0.150452
     6  H    0.151887
     7  H    0.139789
     8  H    0.153979
     9  H    0.158506
    10  H    0.166214
    11  C   -0.298084
    12  C   -0.299950
    13  C   -0.476037
    14  H    0.149103
    15  H    0.144926
    16  H    0.153953
    17  H    0.152914
    18  H    0.154480
    19  H    0.155464
    20  H    0.162370
    21  C   -0.166392
    22  C   -0.220457
    23  C   -0.170920
    24  C    0.158236
    25  C   -0.171365
    26  C   -0.219890
    27  H    0.227810
    28  H    0.223812
    29  H    0.275624
    30  H    0.275788
    31  H    0.223665
    32  N    0.488125
    33  O   -0.460448
    34  O   -0.460471
 Sum of Mulliken charges =  -0.00000

 Dipole moment (field-independent basis, Debye):
    X=             -4.9089    Y=             -1.0256    Z=              1.6033  Tot=              5.2649
 Quadrupole moment (field-independent basis, Debye-Ang):
   XX=           -128.6037   YY=            -92.5826   ZZ=            -91.4713
   XY=             -2.7261   XZ=              5.8995   YZ=              2.5419

 Normal termination of Gaussian 16 at Thu May  6 12:06:07 2021.
