 Gaussian 16, Revision A.03,
 Gaussian 16:  EM64L-G16RevA.03 25-Dec-2016

 -------------
 #p 6-31g* mp2
 -------------

 ------------------------------------------------------
 Input file generated by CHIRIPA (05-May-2021 14:57:21)
 ------------------------------------------------------
 Symbolic Z-matrix:
 Charge =  0 Multiplicity = 1

                         Standard orientation:
 ---------------------------------------------------------------------
 Center     Atomic      Atomic             Coordinates (Angstroms)
 Number     Number       Type             X           Y           Z
 ---------------------------------------------------------------------
      1          6           0        3.420551    2.103694   -0.054097
      2          6           0        3.409523    1.288657   -1.190809
      3          6           0        2.960055   -0.032861   -1.112591
      4          6           0        2.526720   -0.508905    0.123893
      5          6           0        2.525602    0.278390    1.274309
      6          6           0        2.979333    1.596853    1.172671
      7          1           0        3.771364    3.129095   -0.123955
      8          1           0        3.751600    1.679600   -2.144848
      9          1           0        2.940837   -0.685672   -1.976816
     10          1           0        2.178501   -0.139521    2.211480
     11          1           0        2.986777    2.227533    2.057110
     12          7           0        2.048631   -1.906320    0.219095
     13          8           0        1.672014   -2.301908    1.320143
     14          8           0        2.059576   -2.579565   -0.809135
     15          6           0       -3.156152   -2.183351   -0.147517
     16          6           0       -4.135770   -1.252641    0.213931
     17          6           0       -3.841891    0.113941    0.239189
     18          6           0       -2.552281    0.516606   -0.104401
     19          6           0       -1.554675   -0.386311   -0.468841
     20          6           0       -1.870996   -1.747984   -0.487152
     21          1           0       -3.393161   -3.243039   -0.164440
     22          1           0       -5.134688   -1.587877    0.478177
     23          1           0       -4.581232    0.855973    0.515200
     24          1           0       -0.567850   -0.021818   -0.727181
     25          1           0       -1.108215   -2.468532   -0.768257
     26          7           0       -2.229285    1.960746   -0.081340
     27          8           0       -1.085584    2.289904   -0.388326
     28          8           0       -3.125938    2.736161    0.243286
 ---------------------------------------------------------------------

 SCF Done:  E(RHF) =  -868.340342260     A.U. after   16 cycles
 E2 =    -0.2600559041D+01 EUMP2 =    -0.87094090130029D+03

 The electronic state is 1-A.
 Alpha  occ. eigenvalues --  -20.61390 -20.61352 -20.60612 -20.60600 -15.86380
 Alpha  occ. eigenvalues --  -15.85647 -11.31322 -11.30765 -11.27855 -11.27795
 Alpha  occ. eigenvalues --  -11.27414 -11.27297 -11.27232 -11.26896 -11.26716
 Alpha  occ. eigenvalues --  -11.26666 -11.26280 -11.26055  -1.60461  -1.59689
 Alpha  occ. eigenvalues --   -1.40012  -1.39248  -1.19434  -1.18879  -1.08899
 Alpha  occ. eigenvalues --   -1.08311  -1.04753  -1.04232  -0.95806  -0.95204
 Alpha  occ. eigenvalues --   -0.86178  -0.85632  -0.82651  -0.82039  -0.77762
 Alpha  occ. eigenvalues --   -0.77134  -0.72593  -0.71903  -0.71785  -0.71006
 Alpha  occ. eigenvalues --   -0.70506  -0.69974  -0.65074  -0.64744  -0.64520
 Alpha  occ. eigenvalues --   -0.64196  -0.62117  -0.61569  -0.55241  -0.54723
 Alpha  occ. eigenvalues --   -0.53140  -0.52840  -0.52583  -0.52235  -0.49383
 Alpha  occ. eigenvalues --   -0.49325  -0.48643  -0.48606  -0.45495  -0.44711
 Alpha  occ. eigenvalues --   -0.37344  -0.36827  -0.36315  -0.35811
 Alpha virt. eigenvalues --    0.04684   0.05365   0.11282   0.11872   0.16297
 Alpha virt. eigenvalues --    0.16946   0.21506   0.21987   0.27379   0.27496
 Alpha virt. eigenvalues --    0.28404   0.28726   0.31200   0.31725   0.32521

 Mulliken charges:
               1
     1  C   -0.163619
     2  C   -0.214532
     3  C   -0.175312
     4  C    0.150955
     5  C   -0.169737
     6  C   -0.212189
     7  H    0.229402
     8  H    0.225105
     9  H    0.273591
    10  H    0.275346
    11  H    0.226638
    12  N    0.485997
    13  O   -0.458093
    14  O   -0.467566
    15  C   -0.171001
    16  C   -0.218375
    17  C   -0.172742
    18  C    0.157289
    19  C   -0.177681
    20  C   -0.220533
    21  H    0.227550
    22  H    0.221756
    23  H    0.272888
    24  H    0.271856
    25  H    0.242485
    26  N    0.487696
    27  O   -0.464864
    28  O   -0.462308
 Sum of Mulliken charges =  -0.00000

 Dipole moment (field-independent basis, Debye):
    X=              0.8067    Y=             -0.0674    Z=             -0.3302  Tot=              0.8742
 Quadrupole moment (field-independent basis, Debye-Ang):
   XX=            -86.5084   YY=           -115.5456   ZZ=           -100.4265
   XY=             24.3812   XZ=             -2.7251   YZ=              2.3511

 Normal termination of Gaussian 16 at Thu May  6 19:26:09 2021.
