 Gaussian 16, Revision A.03,
 Gaussian 16:  EM64L-G16RevA.03 25-Dec-2016

 -------------
 #p 6-31g* mp2
 -------------

 ------------------------------------------------------
 Input file generated by CHIRIPA (05-May-2021 14:53:18)
 ------------------------------------------------------
 Symbolic Z-matrix:
 Charge =  0 Multiplicity = 1

                         Standard orientation:
 ---------------------------------------------------------------------
 Center     Atomic      Atomic             Coordinates (Angstroms)
 Number     Number       Type             X           Y           Z
 ---------------------------------------------------------------------
      1          6           0       -3.501127   -0.442025    0.134773
      2          6           0       -2.602246   -0.939289   -0.997803
      3          6           0       -1.366120   -1.681492   -0.488961
      4          1           0       -2.919873    0.218668    0.792477
      5          1           0       -3.813249   -1.298263    0.748638
      6          1           0       -2.293035   -0.082540   -1.610163
      7          1           0       -3.185760   -1.598722   -1.652995
      8          1           0       -1.657806   -2.553838    0.104783
      9          1           0       -0.760008   -1.029042    0.147858
     10          1           0       -0.737617   -2.028213   -1.315175
     11          6           0       -4.741029    0.301949   -0.358050
     12          6           0       -5.639909    0.799213    0.774526
     13          6           0       -6.876035    1.541417    0.265684
     14          1           0       -4.428906    1.158188   -0.971915
     15          1           0       -5.322283   -0.358743   -1.015754
     16          1           0       -5.056396    1.458646    1.429718
     17          1           0       -5.949120   -0.057536    1.386886
     18          1           0       -7.482147    0.888966   -0.371135
     19          1           0       -6.584350    2.413763   -0.328060
     20          1           0       -7.504538    1.888138    1.091898
     21          6           0        2.137174   -2.188580    0.489597
     22          6           0        2.625491   -1.443470    1.567965
     23          6           0        3.227106   -0.199277    1.356804
     24          6           0        3.324236    0.271591    0.048317
     25          6           0        2.847355   -0.447173   -1.046787
     26          6           0        2.249466   -1.688935   -0.812043
     27          1           0        1.671272   -3.154156    0.662791
     28          1           0        2.539647   -1.829011    2.579911
     29          1           0        3.613653    0.398394    2.173376
     30          1           0        2.947303   -0.036591   -2.044209
     31          1           0        1.871124   -2.265414   -1.651432
     32          7           0        3.959167    1.587475   -0.187712
     33          8           0        4.032603    1.980143   -1.350063
     34          8           0        4.371367    2.201283    0.794106
 ---------------------------------------------------------------------

 SCF Done:  E(RHF) =  -669.534587405     A.U. after   15 cycles
 E2 =    -0.2092189770D+01 EUMP2 =    -0.67162677717441D+03

 The electronic state is 1-A.
 Alpha  occ. eigenvalues --  -20.60755 -20.60749 -15.85809 -11.31164 -11.27736
 Alpha  occ. eigenvalues --  -11.27715 -11.27449 -11.26748 -11.26720 -11.22027
 Alpha  occ. eigenvalues --  -11.21807 -11.21734 -11.21657 -11.21619 -11.21226
 Alpha  occ. eigenvalues --   -1.59831  -1.39385  -1.19341  -1.08770  -1.08713
 Alpha  occ. eigenvalues --   -1.04746  -1.03870  -0.96343  -0.95563  -0.87374
 Alpha  occ. eigenvalues --   -0.86132  -0.82401  -0.79946  -0.78547  -0.77453
 Alpha  occ. eigenvalues --   -0.72027  -0.71155  -0.70433  -0.65372  -0.64989
 Alpha  occ. eigenvalues --   -0.64765  -0.62109  -0.61266  -0.59720  -0.57942
 Alpha  occ. eigenvalues --   -0.55649  -0.55229  -0.53421  -0.52974  -0.52692
 Alpha  occ. eigenvalues --   -0.52643  -0.50238  -0.48785  -0.48782  -0.48254
 Alpha  occ. eigenvalues --   -0.46952  -0.46094  -0.46002  -0.44793  -0.44140
 Alpha  occ. eigenvalues --   -0.37243  -0.36319
 Alpha virt. eigenvalues --    0.05070   0.11267   0.16519   0.20793   0.22630
 Alpha virt. eigenvalues --    0.24027   0.26230   0.26322   0.27079   0.27779
 Alpha virt. eigenvalues --    0.28675   0.29801   0.31129   0.31749   0.31992

 Mulliken charges:
               1
     1  C   -0.298907
     2  C   -0.300236
     3  C   -0.476544
     4  H    0.151043
     5  H    0.148416
     6  H    0.154409
     7  H    0.151561
     8  H    0.150221
     9  H    0.163020
    10  H    0.151262
    11  C   -0.298669
    12  C   -0.299929
    13  C   -0.475936
    14  H    0.151186
    15  H    0.149613
    16  H    0.152799
    17  H    0.151355
    18  H    0.155105
    19  H    0.156237
    20  H    0.160883
    21  C   -0.167618
    22  C   -0.220068
    23  C   -0.171443
    24  C    0.158167
    25  C   -0.172874
    26  C   -0.213734
    27  H    0.226638
    28  H    0.223432
    29  H    0.275421
    30  H    0.275303
    31  H    0.222996
    32  N    0.488079
    33  O   -0.460561
    34  O   -0.460626
 Sum of Mulliken charges =  -0.00000

 Dipole moment (field-independent basis, Debye):
    X=             -2.2905    Y=             -4.6028    Z=              0.8554  Tot=              5.2119
 Quadrupole moment (field-independent basis, Debye-Ang):
   XX=           -110.9047   YY=            -97.5690   ZZ=            -89.9675
   XY=            -15.3317   XZ=              3.3714   YZ=              0.6219

 Normal termination of Gaussian 16 at Thu May  6 14:00:43 2021.
