 Gaussian 16, Revision A.03,
 Gaussian 16:  EM64L-G16RevA.03 25-Dec-2016

 -------------
 #p 6-31g* mp2
 -------------

 ------------------------------------------------------
 Input file generated by CHIRIPA (05-May-2021 14:53:12)
 ------------------------------------------------------
 Symbolic Z-matrix:
 Charge =  0 Multiplicity = 1

                         Standard orientation:
 ---------------------------------------------------------------------
 Center     Atomic      Atomic             Coordinates (Angstroms)
 Number     Number       Type             X           Y           Z
 ---------------------------------------------------------------------
      1          6           0       -2.791688   -0.335267    0.342824
      2          6           0       -3.662135    0.735957   -0.315041
      3          6           0       -4.744511    0.145103   -1.219004
      4          1           0       -2.323702   -0.949315   -0.438764
      5          1           0       -3.432009   -1.009413    0.928411
      6          1           0       -3.020199    1.408701   -0.898093
      7          1           0       -4.127952    1.347646    0.468201
      8          1           0       -5.408645   -0.510682   -0.646751
      9          1           0       -4.294598   -0.449280   -2.020807
     10          1           0       -5.355036    0.928380   -1.678999
     11          6           0       -1.705032    0.239839    1.249554
     12          6           0       -0.834585   -0.831385    1.907419
     13          6           0        0.247791   -0.240531    2.811382
     14          1           0       -1.064711    0.913985    0.663967
     15          1           0       -2.173017    0.853887    2.031142
     16          1           0       -0.368768   -1.443074    1.124178
     17          1           0       -1.476520   -1.504129    2.490471
     18          1           0       -0.202122    0.353852    3.613185
     19          1           0        0.911925    0.415254    2.239129
     20          1           0        0.858316   -1.023808    3.271377
     21          6           0        1.452483   -2.440375   -0.989062
     22          6           0        2.490999   -1.975507   -0.175488
     23          6           0        2.668922   -0.604883    0.034936
     24          6           0        1.785925    0.276807   -0.586539
     25          6           0        0.741691   -0.155414   -1.402657
     26          6           0        0.582677   -1.530450   -1.598975
     27          1           0        1.321613   -3.506823   -1.147047
     28          1           0        3.168017   -2.679866    0.299456
     29          1           0        3.464492   -0.217698    0.659896
     30          1           0        0.082776    0.570984   -1.862650
     31          1           0       -0.224729   -1.888612   -2.231320
     32          7           0        1.964276    1.730161   -0.371239
     33          8           0        1.172871    2.486448   -0.930117
     34          8           0        2.892094    2.085492    0.352315
 ---------------------------------------------------------------------

 SCF Done:  E(RHF) =  -669.533046005     A.U. after   15 cycles
 E2 =    -0.2099405381D+01 EUMP2 =    -0.67163245138646D+03

 The electronic state is 1-A.
 Alpha  occ. eigenvalues --  -20.61035 -20.61028 -15.86031 -11.31330 -11.27933
 Alpha  occ. eigenvalues --  -11.27928 -11.27667 -11.26931 -11.26908 -11.21683
 Alpha  occ. eigenvalues --  -11.21510 -11.21363 -11.21267 -11.21218 -11.20895
 Alpha  occ. eigenvalues --   -1.60078  -1.39635  -1.19572  -1.08961  -1.08438
 Alpha  occ. eigenvalues --   -1.04953  -1.03527  -0.95995  -0.95790  -0.87021
 Alpha  occ. eigenvalues --   -0.86338  -0.82621  -0.79597  -0.78245  -0.77668
 Alpha  occ. eigenvalues --   -0.72262  -0.71432  -0.70660  -0.65231  -0.65161
 Alpha  occ. eigenvalues --   -0.64925  -0.62291  -0.61047  -0.59368  -0.57598
 Alpha  occ. eigenvalues --   -0.55451  -0.55369  -0.53139  -0.53033  -0.52650
 Alpha  occ. eigenvalues --   -0.52395  -0.49992  -0.49026  -0.49021  -0.47871
 Alpha  occ. eigenvalues --   -0.46663  -0.45785  -0.45720  -0.44953  -0.43776
 Alpha  occ. eigenvalues --   -0.37426  -0.36450
 Alpha virt. eigenvalues --    0.04816   0.10975   0.16200   0.20240   0.23111
 Alpha virt. eigenvalues --    0.24042   0.25863   0.26358   0.27547   0.28323
 Alpha virt. eigenvalues --    0.29404   0.30711   0.30766   0.31831   0.31905

 Mulliken charges:
               1
     1  C   -0.299187
     2  C   -0.301349
     3  C   -0.474622
     4  H    0.139686
     5  H    0.149535
     6  H    0.154250
     7  H    0.155554
     8  H    0.155452
     9  H    0.148905
    10  H    0.162433
    11  C   -0.301767
    12  C   -0.308207
    13  C   -0.474350
    14  H    0.153284
    15  H    0.152329
    16  H    0.158556
    17  H    0.148496
    18  H    0.156595
    19  H    0.155479
    20  H    0.154342
    21  C   -0.172234
    22  C   -0.216469
    23  C   -0.168812
    24  C    0.158478
    25  C   -0.170178
    26  C   -0.219453
    27  H    0.227022
    28  H    0.224637
    29  H    0.276609
    30  H    0.276983
    31  H    0.224612
    32  N    0.490506
    33  O   -0.458988
    34  O   -0.458124
 Sum of Mulliken charges =  -0.00000

 Dipole moment (field-independent basis, Debye):
    X=             -0.4596    Y=             -5.0482    Z=             -0.8229  Tot=              5.1354
 Quadrupole moment (field-independent basis, Debye-Ang):
   XX=            -94.3139   YY=            -97.9620   ZZ=            -92.8182
   XY=            -10.7787   XZ=              0.4685   YZ=              2.1514

 Normal termination of Gaussian 16 at Wed May  5 23:21:54 2021.
