 Gaussian 16, Revision A.03,
 Gaussian 16:  EM64L-G16RevA.03 25-Dec-2016

 -------------
 #p 6-31g* mp2
 -------------

 ------------------------------------------------------
 Input file generated by CHIRIPA (05-May-2021 14:51:11)
 ------------------------------------------------------
 Symbolic Z-matrix:
 Charge =  0 Multiplicity = 1

                         Standard orientation:
 ---------------------------------------------------------------------
 Center     Atomic      Atomic             Coordinates (Angstroms)
 Number     Number       Type             X           Y           Z
 ---------------------------------------------------------------------
      1          6           0       -2.540783   -0.457687    0.007476
      2          6           0       -2.837967   -1.924897   -0.303912
      3          6           0       -1.593316   -2.809548   -0.226265
      4          1           0       -1.781348   -0.087009   -0.694522
      5          1           0       -2.100275   -0.385116    1.011509
      6          1           0       -3.279061   -1.994535   -1.306510
      7          1           0       -3.596923   -2.292070    0.398786
      8          1           0       -1.154330   -2.769781    0.775889
      9          1           0       -0.834662   -2.470556   -0.939097
     10          1           0       -1.828561   -3.854243   -0.452389
     11          6           0       -3.775175    0.439302   -0.066107
     12          6           0       -3.477991    1.906511    0.245282
     13          6           0       -4.722643    2.791162    0.167634
     14          1           0       -4.215683    0.366731   -1.070139
     15          1           0       -4.534611    0.068624    0.635891
     16          1           0       -2.719035    2.273685   -0.457417
     17          1           0       -3.036897    1.976150    1.247880
     18          1           0       -5.481297    2.452170    0.880466
     19          1           0       -5.161628    2.751396   -0.834520
     20          1           0       -4.487398    3.835857    0.393758
     21          6           0        3.100664   -0.666344    0.381163
     22          6           0        2.096588   -1.611143   -0.280024
     23          6           0        1.993137   -2.958511    0.435304
     24          1           0        4.087828   -1.147959    0.403551
     25          1           0        2.807649   -0.505281    1.427870
     26          1           0        2.390634   -1.769281   -1.325560
     27          1           0        1.111741   -1.127146   -0.301013
     28          1           0        1.677240   -2.819794    1.474327
     29          1           0        2.963399   -3.465577    0.443958
     30          1           0        1.269871   -3.618322   -0.053978
     31          6           0        3.215294    0.684729   -0.322533
     32          6           0        4.219371    1.629529    0.338655
     33          6           0        4.322822    2.976896   -0.376673
     34          1           0        3.508309    0.523666   -1.369240
     35          1           0        2.228131    1.166344   -0.344920
     36          1           0        5.204217    1.145532    0.359643
     37          1           0        3.925324    1.787666    1.384191
     38          1           0        3.352559    3.483962   -0.385327
     39          1           0        4.638718    2.838179   -1.415696
     40          1           0        5.046088    3.636708    0.112609
 ---------------------------------------------------------------------

 SCF Done:  E(RHF) =  -470.732146536     A.U. after   11 cycles
 E2 =    -0.1583834028D+01 EUMP2 =    -0.47231598056415D+03

 The electronic state is 1-A.
 Alpha  occ. eigenvalues --  -11.21635 -11.21596 -11.21573 -11.21493 -11.21444
 Alpha  occ. eigenvalues --  -11.21384 -11.21357 -11.21294 -11.21095 -11.21052
 Alpha  occ. eigenvalues --  -11.21006 -11.20912  -1.08466  -1.08370  -1.03594
 Alpha  occ. eigenvalues --   -1.03426  -0.96082  -0.95839  -0.87096  -0.86858
 Alpha  occ. eigenvalues --   -0.79628  -0.79538  -0.78313  -0.78161  -0.65094
 Alpha  occ. eigenvalues --   -0.65008  -0.60958  -0.60896  -0.59386  -0.59319
 Alpha  occ. eigenvalues --   -0.57816  -0.57330  -0.55305  -0.55189  -0.52876
 Alpha  occ. eigenvalues --   -0.52598  -0.52441  -0.52076  -0.50029  -0.49771
 Alpha  occ. eigenvalues --   -0.47916  -0.47841  -0.46768  -0.46468  -0.45937
 Alpha  occ. eigenvalues --   -0.45748  -0.45702  -0.45454  -0.43854  -0.43664
 Alpha virt. eigenvalues --    0.21583   0.23143   0.23476   0.24787   0.25758
 Alpha virt. eigenvalues --    0.26571   0.26829   0.27287   0.28400   0.29400
 Alpha virt. eigenvalues --    0.29885   0.31153   0.31457   0.31818   0.32315

 Mulliken charges:
               1
     1  C   -0.299654
     2  C   -0.300662
     3  C   -0.479874
     4  H    0.150169
     5  H    0.149076
     6  H    0.151687
     7  H    0.151719
     8  H    0.158184
     9  H    0.160363
    10  H    0.159359
    11  C   -0.298200
    12  C   -0.299689
    13  C   -0.475720
    14  H    0.149773
    15  H    0.149909
    16  H    0.151845
    17  H    0.151740
    18  H    0.155259
    19  H    0.155316
    20  H    0.160316
    21  C   -0.297655
    22  C   -0.304797
    23  C   -0.477488
    24  H    0.149419
    25  H    0.149218
    26  H    0.150600
    27  H    0.156663
    28  H    0.153367
    29  H    0.153959
    30  H    0.166517
    31  C   -0.298375
    32  C   -0.299556
    33  C   -0.475691
    34  H    0.149192
    35  H    0.149585
    36  H    0.151904
    37  H    0.151881
    38  H    0.155127
    39  H    0.155053
    40  H    0.160159
 Sum of Mulliken charges =  -0.00000

 Dipole moment (field-independent basis, Debye):
    X=             -0.0375    Y=             -0.0216    Z=             -0.0056  Tot=              0.0436
 Quadrupole moment (field-independent basis, Debye-Ang):
   XX=            -85.0713   YY=            -86.2239   ZZ=            -83.6130
   XY=              0.1892   XZ=             -0.5875   YZ=              0.4978

 Normal termination of Gaussian 16 at Thu May  6 02:17:11 2021.
