 Gaussian 16, Revision A.03,
 Gaussian 16:  EM64L-G16RevA.03 25-Dec-2016

 -------------
 #p 6-31g* mp2
 -------------

 ------------------------------------------------------
 Input file generated by CHIRIPA (05-May-2021 14:55:24)
 ------------------------------------------------------
 Symbolic Z-matrix:
 Charge =  0 Multiplicity = 1

                         Standard orientation:
 ---------------------------------------------------------------------
 Center     Atomic      Atomic             Coordinates (Angstroms)
 Number     Number       Type             X           Y           Z
 ---------------------------------------------------------------------
      1          6           0       -1.364048    1.867622    0.671123
      2          6           0       -2.569391    2.424734    0.231472
      3          6           0       -3.645977    1.603506   -0.116515
      4          6           0       -3.481754    0.223114   -0.012400
      5          6           0       -2.293501   -0.362066    0.422237
      6          6           0       -1.230185    0.478449    0.764937
      7          1           0       -0.532885    2.513063    0.939395
      8          1           0       -2.676204    3.503244    0.157630
      9          1           0       -4.590285    2.008231   -0.459878
     10          1           0       -2.217092   -1.440760    0.485471
     11          1           0       -0.295271    0.043003    1.106062
     12          7           0       -4.614462   -0.656493   -0.378000
     13          8           0       -4.444396   -1.869595   -0.277516
     14          8           0       -5.650898   -0.116170   -0.758120
     15          6           0        4.525837    0.213861   -0.199964
     16          6           0        6.054517    0.196514   -0.228671
     17          6           0        6.656213    1.574243   -0.507273
     18          1           0        4.151649    0.591354   -1.161435
     19          1           0        4.188501    0.924310    0.567410
     20          1           0        6.388874   -0.514716   -0.994812
     21          1           0        6.425104   -0.181162    0.732912
     22          1           0        6.351149    2.290635    0.262351
     23          1           0        6.314714    1.955186   -1.475189
     24          1           0        7.749989    1.538841   -0.523375
     25          6           0        3.909542   -1.156155    0.077455
     26          6           0        2.380862   -1.138809    0.106163
     27          6           0        1.779166   -2.516537    0.384764
     28          1           0        4.246878   -1.866605   -0.689917
     29          1           0        4.283729   -1.533649    1.038926
     30          1           0        2.010274   -0.761132   -0.855420
     31          1           0        2.046504   -0.427578    0.872304
     32          1           0        2.120664   -2.897480    1.352681
     33          1           0        2.084229   -3.232929   -0.384859
     34          1           0        0.685389   -2.481135    0.400866
 ---------------------------------------------------------------------

 SCF Done:  E(RHF) =  -669.535348031     A.U. after   15 cycles
 E2 =    -0.2091608385D+01 EUMP2 =    -0.67162695641543D+03

 The electronic state is 1-A.
 Alpha  occ. eigenvalues --  -20.60721 -20.60715 -15.85772 -11.31129 -11.27696
 Alpha  occ. eigenvalues --  -11.27685 -11.27424 -11.26714 -11.26644 -11.22626
 Alpha  occ. eigenvalues --  -11.22172 -11.22151 -11.22061 -11.21995 -11.21573
 Alpha  occ. eigenvalues --   -1.59796  -1.39350  -1.19295  -1.09190  -1.08691
 Alpha  occ. eigenvalues --   -1.04702  -1.04285  -0.96714  -0.95531  -0.87725
 Alpha  occ. eigenvalues --   -0.86097  -0.82365  -0.80376  -0.78995  -0.77410
 Alpha  occ. eigenvalues --   -0.71991  -0.71119  -0.70408  -0.65831  -0.64947
 Alpha  occ. eigenvalues --   -0.64714  -0.62147  -0.61636  -0.60065  -0.58321
 Alpha  occ. eigenvalues --   -0.55976  -0.55191  -0.53422  -0.53141  -0.53019
 Alpha  occ. eigenvalues --   -0.52782  -0.50636  -0.48782  -0.48747  -0.48641
 Alpha  occ. eigenvalues --   -0.47392  -0.46520  -0.46433  -0.44757  -0.44536
 Alpha  occ. eigenvalues --   -0.37275  -0.36294
 Alpha virt. eigenvalues --    0.05113   0.11334   0.16575   0.19434   0.22450
 Alpha virt. eigenvalues --    0.23729   0.25366   0.25672   0.26420   0.27867
 Alpha virt. eigenvalues --    0.28732   0.30060   0.30849   0.31286   0.31994

 Mulliken charges:
               1
     1  C   -0.172942
     2  C   -0.218501
     3  C   -0.171312
     4  C    0.159176
     5  C   -0.174907
     6  C   -0.224222
     7  H    0.225370
     8  H    0.223114
     9  H    0.275332
    10  H    0.275834
    11  H    0.235297
    12  N    0.488084
    13  O   -0.460545
    14  O   -0.460691
    15  C   -0.298661
    16  C   -0.300232
    17  C   -0.476076
    18  H    0.150698
    19  H    0.146553
    20  H    0.153888
    21  H    0.152986
    22  H    0.154456
    23  H    0.155779
    24  H    0.162330
    25  C   -0.298018
    26  C   -0.304327
    27  C   -0.477789
    28  H    0.153498
    29  H    0.151594
    30  H    0.156956
    31  H    0.141169
    32  H    0.158573
    33  H    0.162691
    34  H    0.154846
 Sum of Mulliken charges =  -0.00000

 Dipole moment (field-independent basis, Debye):
    X=              4.2306    Y=              3.0260    Z=              1.2197  Tot=              5.3425
 Quadrupole moment (field-independent basis, Debye-Ang):
   XX=           -121.1076   YY=            -90.8928   ZZ=            -94.4135
   XY=            -13.3527   XZ=             -3.8874   YZ=             -0.3363

 Normal termination of Gaussian 16 at Thu May  6 17:38:49 2021.
