 Gaussian 16, Revision A.03,
 Gaussian 16:  EM64L-G16RevA.03 25-Dec-2016

 -------------
 #p 6-31g* mp2
 -------------

 ------------------------------------------------------
 Input file generated by CHIRIPA (05-May-2021 14:57:25)
 ------------------------------------------------------
 Symbolic Z-matrix:
 Charge =  0 Multiplicity = 1

                         Standard orientation:
 ---------------------------------------------------------------------
 Center     Atomic      Atomic             Coordinates (Angstroms)
 Number     Number       Type             X           Y           Z
 ---------------------------------------------------------------------
      1          6           0       -1.097713   -0.019511    2.094552
      2          6           0       -1.292978    1.115654    1.300957
      3          6           0       -2.289715    1.133842    0.320787
      4          6           0       -3.076498   -0.005708    0.160512
      5          6           0       -2.906428   -1.151932    0.935455
      6          6           0       -1.903641   -1.147692    1.909594
      7          1           0       -0.321074   -0.024929    2.853629
      8          1           0       -0.668581    1.993249    1.442378
      9          1           0       -2.462480    1.999209   -0.307473
     10          1           0       -3.544629   -2.011643    0.771087
     11          1           0       -1.754259   -2.030685    2.524455
     12          7           0       -4.134901    0.001675   -0.873958
     13          8           0       -4.814745   -1.015035   -0.995409
     14          8           0       -4.264594    1.024032   -1.543736
     15          6           0        2.602132    2.504571   -0.136763
     16          6           0        3.808097    1.912034    0.251910
     17          6           0        3.985409    0.529120    0.148669
     18          6           0        2.931057   -0.234538   -0.349784
     19          6           0        1.717650    0.326316   -0.745229
     20          6           0        1.562590    1.711220   -0.633218
     21          1           0        2.473035    3.579624   -0.053157
     22          1           0        4.617143    2.525684    0.637816
     23          1           0        4.908552    0.044365    0.442332
     24          1           0        0.929311   -0.311497   -1.126195
     25          1           0        0.624923    2.168663   -0.935826
     26          7           0        3.106990   -1.699620   -0.463724
     27          8           0        2.162775   -2.350373   -0.906008
     28          8           0        4.185771   -2.169457   -0.108588
 ---------------------------------------------------------------------

 SCF Done:  E(RHF) =  -868.336643174     A.U. after   16 cycles
 E2 =    -0.2602345619D+01 EUMP2 =    -0.87093898879288D+03

 The electronic state is 1-A.
 Alpha  occ. eigenvalues --  -20.61239 -20.61234 -20.61090 -20.61068 -15.86295
 Alpha  occ. eigenvalues --  -15.86137 -11.31726 -11.31586 -11.28305 -11.28270
 Alpha  occ. eigenvalues --  -11.28197 -11.28096 -11.28046 -11.27807 -11.27342
 Alpha  occ. eigenvalues --  -11.27332 -11.27206 -11.27068  -1.60317  -1.60156
 Alpha  occ. eigenvalues --   -1.39865  -1.39708  -1.19932  -1.19737  -1.09320
 Alpha  occ. eigenvalues --   -1.09102  -1.05372  -1.05113  -0.96126  -0.95932
 Alpha  occ. eigenvalues --   -0.86750  -0.86513  -0.82976  -0.82744  -0.78021
 Alpha  occ. eigenvalues --   -0.77781  -0.72507  -0.72349  -0.71649  -0.71483
 Alpha  occ. eigenvalues --   -0.71019  -0.70805  -0.65567  -0.65483  -0.65342
 Alpha  occ. eigenvalues --   -0.65054  -0.62748  -0.62399  -0.55846  -0.55593
 Alpha  occ. eigenvalues --   -0.53928  -0.53436  -0.53329  -0.53089  -0.49276
 Alpha  occ. eigenvalues --   -0.49256  -0.49118  -0.49101  -0.45254  -0.45097
 Alpha  occ. eigenvalues --   -0.37989  -0.37930  -0.37158  -0.36201
 Alpha virt. eigenvalues --    0.04527   0.04673   0.10476   0.11003   0.15822
 Alpha virt. eigenvalues --    0.16398   0.19960   0.21689   0.25488   0.27360
 Alpha virt. eigenvalues --    0.27976   0.28344   0.30443   0.30825   0.32025

 Mulliken charges:
               1
     1  C   -0.171555
     2  C   -0.216237
     3  C   -0.181586
     4  C    0.159283
     5  C   -0.169689
     6  C   -0.215580
     7  H    0.228437
     8  H    0.219975
     9  H    0.271128
    10  H    0.278743
    11  H    0.228675
    12  N    0.488156
    13  O   -0.456834
    14  O   -0.462217
    15  C   -0.175465
    16  C   -0.218978
    17  C   -0.171787
    18  C    0.155483
    19  C   -0.167170
    20  C   -0.221969
    21  H    0.225765
    22  H    0.224798
    23  H    0.276730
    24  H    0.280413
    25  H    0.222202
    26  N    0.487588
    27  O   -0.458381
    28  O   -0.459927
 Sum of Mulliken charges =  -0.00000

 Dipole moment (field-independent basis, Debye):
    X=              3.0880    Y=              4.8610    Z=              4.1197  Tot=              7.0808
 Quadrupole moment (field-independent basis, Debye-Ang):
   XX=           -127.3302   YY=           -103.6485   ZZ=           -104.0868
   XY=             17.6653   XZ=             -7.8655   YZ=             -3.2799

 Normal termination of Gaussian 16 at Wed May  5 21:09:58 2021.
