 Gaussian 16, Revision A.03,
 Gaussian 16:  EM64L-G16RevA.03 25-Dec-2016

 -------------
 #p 6-31g* mp2
 -------------

 ------------------------------------------------------
 Input file generated by CHIRIPA (05-May-2021 14:55:24)
 ------------------------------------------------------
 Symbolic Z-matrix:
 Charge =  0 Multiplicity = 1

                         Standard orientation:
 ---------------------------------------------------------------------
 Center     Atomic      Atomic             Coordinates (Angstroms)
 Number     Number       Type             X           Y           Z
 ---------------------------------------------------------------------
      1          6           0       -0.632461    0.863821    0.953888
      2          6           0       -1.053349   -0.421683    1.310052
      3          6           0       -2.287984   -0.911025    0.873280
      4          6           0       -3.080008   -0.084203    0.078073
      5          6           0       -2.688505    1.201042   -0.293627
      6          6           0       -1.449941    1.669660    0.154594
      7          1           0        0.328160    1.235904    1.297630
      8          1           0       -0.420560   -1.049723    1.930688
      9          1           0       -2.638386   -1.902279    1.134145
     10          1           0       -3.341182    1.803768   -0.913428
     11          1           0       -1.125648    2.668413   -0.123565
     12          7           0       -4.389141   -0.591277   -0.390378
     13          8           0       -5.068442    0.156855   -1.090010
     14          8           0       -4.711149   -1.727254   -0.049049
     15          6           0        3.440705    0.643593   -0.544293
     16          6           0        3.380004    1.848105    0.395629
     17          6           0        2.927184    3.126558   -0.310280
     18          1           0        4.124971    0.868075   -1.373952
     19          1           0        2.449265    0.485471   -0.990878
     20          1           0        4.370923    2.003063    0.841368
     21          1           0        2.695950    1.620657    1.223249
     22          1           0        1.928939    2.996155   -0.740516
     23          1           0        3.613428    3.380734   -1.124567
     24          1           0        2.890873    3.975035    0.380102
     25          6           0        3.891767   -0.641978    0.146776
     26          6           0        3.952469   -1.846490   -0.793145
     27          6           0        4.405289   -3.124942   -0.087236
     28          1           0        4.883208   -0.483856    0.593361
     29          1           0        3.207501   -0.866460    0.976435
     30          1           0        4.636523   -1.619042   -1.620765
     31          1           0        2.961550   -2.001448   -1.238884
     32          1           0        3.719045   -3.379119    0.727051
     33          1           0        5.403533   -2.994541    0.343000
     34          1           0        4.441600   -3.973421   -0.777618
 ---------------------------------------------------------------------

 SCF Done:  E(RHF) =  -669.535580068     A.U. after   15 cycles
 E2 =    -0.2091929072D+01 EUMP2 =    -0.67162750914029D+03

 The electronic state is 1-A.
 Alpha  occ. eigenvalues --  -20.60775 -20.60770 -15.85829 -11.31205 -11.27775
 Alpha  occ. eigenvalues --  -11.27770 -11.27491 -11.26793 -11.26781 -11.22785
 Alpha  occ. eigenvalues --  -11.22302 -11.22257 -11.22204 -11.22199 -11.21638
 Alpha  occ. eigenvalues --   -1.59851  -1.39404  -1.19378  -1.09338  -1.08767
 Alpha  occ. eigenvalues --   -1.04782  -1.04420  -0.96849  -0.95602  -0.87867
 Alpha  occ. eigenvalues --   -0.86177  -0.82437  -0.80494  -0.79112  -0.77481
 Alpha  occ. eigenvalues --   -0.72047  -0.71174  -0.70522  -0.65984  -0.65028
 Alpha  occ. eigenvalues --   -0.64775  -0.62139  -0.61828  -0.60229  -0.58446
 Alpha  occ. eigenvalues --   -0.56151  -0.55263  -0.53542  -0.53262  -0.53108
 Alpha  occ. eigenvalues --   -0.52869  -0.50804  -0.48819  -0.48802  -0.48777
 Alpha  occ. eigenvalues --   -0.47544  -0.46660  -0.46561  -0.44807  -0.44657
 Alpha  occ. eigenvalues --   -0.37349  -0.36388
 Alpha virt. eigenvalues --    0.05032   0.11220   0.16425   0.18536   0.22709
 Alpha virt. eigenvalues --    0.23623   0.24695   0.25796   0.26818   0.28125
 Alpha virt. eigenvalues --    0.29336   0.29445   0.30840   0.31348   0.31954

 Mulliken charges:
               1
     1  C   -0.176267
     2  C   -0.221538
     3  C   -0.170694
     4  C    0.158481
     5  C   -0.170613
     6  C   -0.222773
     7  H    0.236305
     8  H    0.223529
     9  H    0.275674
    10  H    0.275770
    11  H    0.225088
    12  N    0.487983
    13  O   -0.460313
    14  O   -0.460379
    15  C   -0.301504
    16  C   -0.302920
    17  C   -0.478425
    18  H    0.154105
    19  H    0.151991
    20  H    0.158271
    21  H    0.141444
    22  H    0.150376
    23  H    0.161938
    24  H    0.162103
    25  C   -0.296773
    26  C   -0.300937
    27  C   -0.475754
    28  H    0.151965
    29  H    0.142560
    30  H    0.154305
    31  H    0.154050
    32  H    0.153351
    33  H    0.156284
    34  H    0.163317
 Sum of Mulliken charges =  -0.00000

 Dipole moment (field-independent basis, Debye):
    X=              4.8091    Y=              1.7684    Z=              1.5410  Tot=              5.3507
 Quadrupole moment (field-independent basis, Debye-Ang):
   XX=           -121.9677   YY=            -92.1952   ZZ=            -94.1097
   XY=             -6.1442   XZ=             -4.9730   YZ=             -2.1250

 Normal termination of Gaussian 16 at Thu May  6 16:01:29 2021.
