 Gaussian 16, Revision A.03,
 Gaussian 16:  EM64L-G16RevA.03 25-Dec-2016

 -------------
 #p 6-31g* mp2
 -------------

 ------------------------------------------------------
 Input file generated by CHIRIPA (05-May-2021 14:57:22)
 ------------------------------------------------------
 Symbolic Z-matrix:
 Charge =  0 Multiplicity = 1

                         Standard orientation:
 ---------------------------------------------------------------------
 Center     Atomic      Atomic             Coordinates (Angstroms)
 Number     Number       Type             X           Y           Z
 ---------------------------------------------------------------------
      1          6           0       -2.092538   -1.874410    0.149594
      2          6           0       -1.877927   -0.659235    0.808239
      3          6           0       -2.836028    0.357378    0.752652
      4          6           0       -4.002550    0.123808    0.026043
      5          6           0       -4.245475   -1.076012   -0.640822
      6          6           0       -3.273545   -2.078561   -0.571563
      7          1           0       -1.342891   -2.658677    0.198086
      8          1           0       -0.961680   -0.497899    1.369048
      9          1           0       -2.695562    1.307733    1.253163
     10          1           0       -5.168721   -1.207438   -1.191968
     11          1           0       -3.442906   -3.021274   -1.084059
     12          7           0       -5.024169    1.192606   -0.040041
     13          8           0       -6.043530    0.962008   -0.686851
     14          8           0       -4.786207    2.240690    0.556223
     15          6           0        4.970649    2.290457   -0.292270
     16          6           0        3.578945    2.221981   -0.169823
     17          6           0        2.938576    0.987351   -0.027834
     18          6           0        3.724305   -0.164030   -0.012250
     19          6           0        5.112712   -0.128528   -0.132071
     20          6           0        5.731748    1.117052   -0.273038
     21          1           0        5.459817    3.253801   -0.402174
     22          1           0        2.985329    3.131625   -0.184429
     23          1           0        1.862770    0.905466    0.068881
     24          1           0        5.677729   -1.052567   -0.114025
     25          1           0        6.812731    1.167205   -0.367931
     26          7           0        3.057667   -1.476875    0.137526
     27          8           0        3.772462   -2.476669    0.148312
     28          8           0        1.832984   -1.481229    0.241299
 ---------------------------------------------------------------------

 SCF Done:  E(RHF) =  -868.340384400     A.U. after   16 cycles
 E2 =    -0.2598538729D+01 EUMP2 =    -0.87093892312903D+03

 The electronic state is 1-A.
 Alpha  occ. eigenvalues --  -20.61796 -20.61735 -20.60349 -20.60341 -15.86803
 Alpha  occ. eigenvalues --  -15.85395 -11.31882 -11.30557 -11.28437 -11.28393
 Alpha  occ. eigenvalues --  -11.28079 -11.27354 -11.27342 -11.27119 -11.27115
 Alpha  occ. eigenvalues --  -11.26601 -11.26020 -11.25933  -1.60826  -1.59429
 Alpha  occ. eigenvalues --   -1.40392  -1.38989  -1.20021  -1.18689  -1.09464
 Alpha  occ. eigenvalues --   -1.08070  -1.05382  -1.04073  -0.96351  -0.94951
 Alpha  occ. eigenvalues --   -0.86792  -0.85441  -0.83199  -0.81810  -0.78282
 Alpha  occ. eigenvalues --   -0.76923  -0.73052  -0.72124  -0.71614  -0.71123
 Alpha  occ. eigenvalues --   -0.70753  -0.69677  -0.65680  -0.65376  -0.64313
 Alpha  occ. eigenvalues --   -0.64019  -0.62737  -0.61427  -0.55880  -0.54407
 Alpha  occ. eigenvalues --   -0.53723  -0.53468  -0.52403  -0.52133  -0.49802
 Alpha  occ. eigenvalues --   -0.49749  -0.48386  -0.48348  -0.45857  -0.44442
 Alpha  occ. eigenvalues --   -0.37974  -0.36971  -0.36580  -0.35703
 Alpha virt. eigenvalues --    0.04231   0.05613   0.10687   0.11950   0.15787
 Alpha virt. eigenvalues --    0.17170   0.20516   0.22240   0.26058   0.27174
 Alpha virt. eigenvalues --    0.28608   0.29211   0.30422   0.31268   0.32597

 Mulliken charges:
               1
     1  C   -0.170518
     2  C   -0.222437
     3  C   -0.174567
     4  C    0.157549
     5  C   -0.172057
     6  C   -0.220192
     7  H    0.241658
     8  H    0.231307
     9  H    0.269951
    10  H    0.273064
    11  H    0.222473
    12  N    0.488295
    13  O   -0.462045
    14  O   -0.464066
    15  C   -0.169723
    16  C   -0.218378
    17  C   -0.170764
    18  C    0.158151
    19  C   -0.170395
    20  C   -0.218380
    21  H    0.228583
    22  H    0.226628
    23  H    0.271976
    24  H    0.276525
    25  H    0.225785
    26  N    0.492176
    27  O   -0.455798
    28  O   -0.474801
 Sum of Mulliken charges =  -0.00000

 Dipole moment (field-independent basis, Debye):
    X=              6.4835    Y=              0.7470    Z=             -0.3193  Tot=              6.5342
 Quadrupole moment (field-independent basis, Debye-Ang):
   XX=           -111.0678   YY=           -104.8890   ZZ=           -104.7022
   XY=             32.9563   XZ=             -1.2990   YZ=              1.8746

 Normal termination of Gaussian 16 at Thu May  6 12:51:30 2021.
