 Gaussian 16, Revision A.03,
 Gaussian 16:  EM64L-G16RevA.03 25-Dec-2016

 -------------
 #p 6-31g* mp2
 -------------

 ------------------------------------------------------
 Input file generated by CHIRIPA (05-May-2021 14:55:19)
 ------------------------------------------------------
 Symbolic Z-matrix:
 Charge =  0 Multiplicity = 1

                         Standard orientation:
 ---------------------------------------------------------------------
 Center     Atomic      Atomic             Coordinates (Angstroms)
 Number     Number       Type             X           Y           Z
 ---------------------------------------------------------------------
      1          6           0        0.687655   -1.478583    1.096683
      2          6           0        1.593064   -0.811984    1.928791
      3          6           0        2.689147   -0.134248    1.386735
      4          6           0        2.850056   -0.143620    0.002065
      5          6           0        1.965323   -0.798522   -0.853295
      6          6           0        0.876342   -1.469740   -0.289261
      7          1           0       -0.161050   -2.002533    1.526302
      8          1           0        1.449032   -0.817170    3.005486
      9          1           0        3.405390    0.389970    2.007709
     10          1           0        2.135296   -0.775632   -1.922876
     11          1           0        0.174795   -1.986574   -0.937920
     12          7           0        4.006670    0.570418   -0.583419
     13          8           0        4.126147    0.547201   -1.806457
     14          8           0        4.771847    1.139779    0.191804
     15          6           0       -3.088265    0.949376    0.198782
     16          6           0       -3.672697    2.269252   -0.305550
     17          6           0       -3.030749    3.490288    0.353819
     18          1           0       -3.218447    0.890519    1.288063
     19          1           0       -2.005388    0.940955    0.012498
     20          1           0       -4.754372    2.274602   -0.119624
     21          1           0       -3.541280    2.324887   -1.393783
     22          1           0       -1.953927    3.512589    0.157457
     23          1           0       -3.173909    3.462018    1.438856
     24          1           0       -3.463391    4.423017   -0.021278
     25          6           0       -3.719880   -0.280442   -0.451096
     26          6           0       -3.135448   -1.600318    0.053236
     27          6           0       -3.777397   -2.821354   -0.606134
     28          1           0       -4.802757   -0.272021   -0.264812
     29          1           0       -3.589699   -0.221585   -1.540377
     30          1           0       -3.266864   -1.655953    1.141469
     31          1           0       -2.053774   -1.605667   -0.132691
     32          1           0       -3.634235   -2.793083   -1.691171
     33          1           0       -4.854219   -2.843654   -0.409772
     34          1           0       -3.344754   -3.754081   -0.231037
 ---------------------------------------------------------------------

 SCF Done:  E(RHF) =  -669.534958068     A.U. after   15 cycles
 E2 =    -0.2092652983D+01 EUMP2 =    -0.67162761105114D+03

 The electronic state is 1-A.
 Alpha  occ. eigenvalues --  -20.60776 -20.60771 -15.85831 -11.31199 -11.27783
 Alpha  occ. eigenvalues --  -11.27774 -11.27485 -11.26780 -11.26764 -11.22662
 Alpha  occ. eigenvalues --  -11.22135 -11.22023 -11.22020 -11.21924 -11.21375
 Alpha  occ. eigenvalues --   -1.59852  -1.39406  -1.19379  -1.09139  -1.08763
 Alpha  occ. eigenvalues --   -1.04787  -1.04222  -0.96634  -0.95602  -0.87655
 Alpha  occ. eigenvalues --   -0.86190  -0.82434  -0.80347  -0.78915  -0.77483
 Alpha  occ. eigenvalues --   -0.72050  -0.71176  -0.70476  -0.65832  -0.65025
 Alpha  occ. eigenvalues --   -0.64777  -0.62186  -0.61560  -0.60040  -0.58248
 Alpha  occ. eigenvalues --   -0.55905  -0.55267  -0.53362  -0.53108  -0.53051
 Alpha  occ. eigenvalues --   -0.52878  -0.50576  -0.48815  -0.48805  -0.48612
 Alpha  occ. eigenvalues --   -0.47371  -0.46445  -0.46339  -0.44811  -0.44454
 Alpha  occ. eigenvalues --   -0.37313  -0.36381
 Alpha virt. eigenvalues --    0.05049   0.11122   0.16533   0.20151   0.22608
 Alpha virt. eigenvalues --    0.23846   0.25565   0.26140   0.27333   0.27609
 Alpha virt. eigenvalues --    0.29094   0.29889   0.30910   0.31542   0.31840

 Mulliken charges:
               1
     1  C   -0.169354
     2  C   -0.219558
     3  C   -0.170649
     4  C    0.157987
     5  C   -0.171827
     6  C   -0.221524
     7  H    0.229730
     8  H    0.223686
     9  H    0.275725
    10  H    0.275610
    11  H    0.225063
    12  N    0.488123
    13  O   -0.460505
    14  O   -0.460324
    15  C   -0.301174
    16  C   -0.300135
    17  C   -0.476328
    18  H    0.148025
    19  H    0.152931
    20  H    0.152391
    21  H    0.153294
    22  H    0.157549
    23  H    0.154546
    24  H    0.162221
    25  C   -0.297345
    26  C   -0.308358
    27  C   -0.476157
    28  H    0.152413
    29  H    0.151037
    30  H    0.150621
    31  H    0.147278
    32  H    0.156663
    33  H    0.160208
    34  H    0.158137
 Sum of Mulliken charges =  -0.00000

 Dipole moment (field-independent basis, Debye):
    X=             -4.1730    Y=             -2.4388    Z=              2.0570  Tot=              5.2529
 Quadrupole moment (field-independent basis, Debye-Ang):
   XX=           -117.4995   YY=            -95.2455   ZZ=            -90.1905
   XY=             -6.5733   XZ=              6.9625   YZ=              0.7004

 Normal termination of Gaussian 16 at Thu May  6 02:55:28 2021.
