 Gaussian 16, Revision A.03,
 Gaussian 16:  EM64L-G16RevA.03 25-Dec-2016

 -------------
 #p 6-31g* mp2
 -------------

 ------------------------------------------------------
 Input file generated by CHIRIPA (05-May-2021 14:53:16)
 ------------------------------------------------------
 Symbolic Z-matrix:
 Charge =  0 Multiplicity = 1

                         Standard orientation:
 ---------------------------------------------------------------------
 Center     Atomic      Atomic             Coordinates (Angstroms)
 Number     Number       Type             X           Y           Z
 ---------------------------------------------------------------------
      1          6           0        3.791965   -0.299405   -0.084289
      2          6           0        4.349595   -0.729591    1.272904
      3          6           0        5.177454   -2.012525    1.192120
      4          1           0        3.174607   -1.110679   -0.493738
      5          1           0        4.624999   -0.155747   -0.786295
      6          1           0        3.515850   -0.871056    1.972527
      7          1           0        4.965542    0.082876    1.679257
      8          1           0        6.027963   -1.880221    0.515562
      9          1           0        4.570034   -2.839573    0.810499
     10          1           0        5.566339   -2.301835    2.173409
     11          6           0        2.962097    0.981567   -0.019818
     12          6           0        2.404467    1.411753   -1.377011
     13          6           0        1.576609    2.694687   -1.296226
     14          1           0        2.129064    0.837908    0.682188
     15          1           0        3.579455    1.792841    0.389631
     16          1           0        1.788520    0.599286   -1.783364
     17          1           0        3.238212    1.553218   -2.076634
     18          1           0        2.184028    3.521735   -0.914605
     19          1           0        0.726099    2.562383   -0.619669
     20          1           0        1.187723    2.983997   -2.277515
     21          6           0       -3.065690    1.788063    1.441438
     22          6           0       -2.077104    1.808600    0.452097
     23          6           0       -1.831676    0.676066   -0.330002
     24          6           0       -2.596987   -0.465094   -0.094755
     25          6           0       -3.588944   -0.516726    0.883329
     26          6           0       -3.817130    0.627512    1.653523
     27          1           0       -3.249648    2.672389    2.044368
     28          1           0       -1.491988    2.708501    0.285174
     29          1           0       -1.072525    0.664461   -1.102643
     30          1           0       -4.156006   -1.428533    1.026391
     31          1           0       -4.585527    0.608680    2.421153
     32          7           0       -2.346290   -1.670253   -0.916426
     33          8           0       -3.034218   -2.663170   -0.689473
     34          8           0       -1.466613   -1.599118   -1.771848
 ---------------------------------------------------------------------

 SCF Done:  E(RHF) =  -669.535415999     A.U. after   15 cycles
 E2 =    -0.2092082778D+01 EUMP2 =    -0.67162749877648D+03

 The electronic state is 1-A.
 Alpha  occ. eigenvalues --  -20.60804 -20.60798 -15.85855 -11.31199 -11.27775
 Alpha  occ. eigenvalues --  -11.27747 -11.27508 -11.26785 -11.26751 -11.21919
 Alpha  occ. eigenvalues --  -11.21792 -11.21582 -11.21572 -11.21348 -11.20965
 Alpha  occ. eigenvalues --   -1.59878  -1.39432  -1.19374  -1.08772  -1.08573
 Alpha  occ. eigenvalues --   -1.04780  -1.03735  -0.96212  -0.95608  -0.87232
 Alpha  occ. eigenvalues --   -0.86172  -0.82449  -0.79799  -0.78340  -0.77498
 Alpha  occ. eigenvalues --   -0.72074  -0.71200  -0.70487  -0.65236  -0.65015
 Alpha  occ. eigenvalues --   -0.64784  -0.62255  -0.61027  -0.59583  -0.57789
 Alpha  occ. eigenvalues --   -0.55565  -0.55208  -0.53107  -0.52957  -0.52876
 Alpha  occ. eigenvalues --   -0.52572  -0.50147  -0.48831  -0.48827  -0.48106
 Alpha  occ. eigenvalues --   -0.46814  -0.45894  -0.45782  -0.44841  -0.43955
 Alpha  occ. eigenvalues --   -0.37354  -0.36370
 Alpha virt. eigenvalues --    0.05015   0.11264   0.16448   0.19769   0.22832
 Alpha virt. eigenvalues --    0.23936   0.25711   0.26446   0.27383   0.28236
 Alpha virt. eigenvalues --    0.29376   0.29594   0.31379   0.31537   0.32469

 Mulliken charges:
               1
     1  C   -0.300229
     2  C   -0.299731
     3  C   -0.476218
     4  H    0.156836
     5  H    0.149871
     6  H    0.151865
     7  H    0.150379
     8  H    0.155133
     9  H    0.158284
    10  H    0.159790
    11  C   -0.298277
    12  C   -0.305079
    13  C   -0.483176
    14  H    0.148001
    15  H    0.148618
    16  H    0.161132
    17  H    0.155881
    18  H    0.158739
    19  H    0.144730
    20  H    0.163306
    21  C   -0.170578
    22  C   -0.223866
    23  C   -0.175037
    24  C    0.157906
    25  C   -0.170516
    26  C   -0.218811
    27  H    0.225969
    28  H    0.228110
    29  H    0.281385
    30  H    0.275577
    31  H    0.223527
    32  N    0.488090
    33  O   -0.460165
    34  O   -0.461443
 Sum of Mulliken charges =  -0.00000

 Dipole moment (field-independent basis, Debye):
    X=             -0.7886    Y=              4.1633    Z=              2.8490  Tot=              5.1061
 Quadrupole moment (field-independent basis, Debye-Ang):
   XX=            -87.2619   YY=            -98.6399   ZZ=            -94.5686
   XY=             -7.7951   XZ=            -10.1410   YZ=             -3.0972

 Normal termination of Gaussian 16 at Thu May  6 10:38:23 2021.
