 Gaussian 16, Revision A.03,
 Gaussian 16:  EM64L-G16RevA.03 25-Dec-2016

 -------------
 #p 6-31g* mp2
 -------------

 ------------------------------------------------------
 Input file generated by CHIRIPA (05-May-2021 14:57:22)
 ------------------------------------------------------
 Symbolic Z-matrix:
 Charge =  0 Multiplicity = 1

                         Standard orientation:
 ---------------------------------------------------------------------
 Center     Atomic      Atomic             Coordinates (Angstroms)
 Number     Number       Type             X           Y           Z
 ---------------------------------------------------------------------
      1          6           0       -1.743499    1.300608   -0.070792
      2          6           0       -2.960374    1.917103    0.238513
      3          6           0       -4.149306    1.181584    0.237843
      4          6           0       -4.084449   -0.174582   -0.078222
      5          6           0       -2.887610   -0.817411   -0.390694
      6          6           0       -1.711058   -0.062278   -0.383856
      7          1           0       -0.824716    1.879595   -0.067876
      8          1           0       -2.988577    2.975380    0.482027
      9          1           0       -5.105104    1.633618    0.473499
     10          1           0       -2.891204   -1.874022   -0.629395
     11          1           0       -0.767456   -0.543701   -0.624465
     12          7           0       -5.336565   -0.963625   -0.082196
     13          8           0       -5.252655   -2.157001   -0.364064
     14          8           0       -6.378175   -0.373760    0.196633
     15          6           0        5.257341   -2.067788    0.036926
     16          6           0        5.416573   -1.108356   -0.968389
     17          6           0        4.657717    0.065752   -0.955944
     18          6           0        3.744743    0.248750    0.081496
     19          6           0        3.563196   -0.688428    1.097384
     20          6           0        4.332792   -1.855137    1.064791
     21          1           0        5.851011   -2.976989    0.019433
     22          1           0        6.133835   -1.270833   -1.767877
     23          1           0        4.760782    0.825037   -1.721635
     24          1           0        2.840223   -0.498326    1.881341
     25          1           0        4.207012   -2.598512    1.846851
     26          7           0        2.935692    1.487809    0.105336
     27          8           0        2.138090    1.625275    1.030306
     28          8           0        3.114478    2.298055   -0.801402
 ---------------------------------------------------------------------

 SCF Done:  E(RHF) =  -868.340193518     A.U. after   16 cycles
 E2 =    -0.2598311982D+01 EUMP2 =    -0.87093850549945D+03

 The electronic state is 1-A.
 Alpha  occ. eigenvalues --  -20.61954 -20.61930 -20.60278 -20.60270 -15.86957
 Alpha  occ. eigenvalues --  -15.85328 -11.32049 -11.30511 -11.28580 -11.28566
 Alpha  occ. eigenvalues --  -11.28247 -11.27515 -11.27504 -11.27119 -11.27079
 Alpha  occ. eigenvalues --  -11.26565 -11.26017 -11.25951  -1.61015  -1.59358
 Alpha  occ. eigenvalues --   -1.40569  -1.38917  -1.20192  -1.18661  -1.09635
 Alpha  occ. eigenvalues --   -1.08041  -1.05543  -1.04059  -0.96513  -0.94909
 Alpha  occ. eigenvalues --   -0.86952  -0.85438  -0.83347  -0.81770  -0.78432
 Alpha  occ. eigenvalues --   -0.76886  -0.73175  -0.72333  -0.71547  -0.71277
 Alpha  occ. eigenvalues --   -0.70681  -0.69628  -0.65837  -0.65530  -0.64294
 Alpha  occ. eigenvalues --   -0.64049  -0.62887  -0.61429  -0.56040  -0.54377
 Alpha  occ. eigenvalues --   -0.53894  -0.53620  -0.52378  -0.52139  -0.49951
 Alpha  occ. eigenvalues --   -0.49916  -0.48314  -0.48287  -0.46023  -0.44364
 Alpha  occ. eigenvalues --   -0.38154  -0.37138  -0.36554  -0.35691
 Alpha virt. eigenvalues --    0.04039   0.05677   0.10516   0.11986   0.15592
 Alpha virt. eigenvalues --    0.17237   0.20728   0.22280   0.26667   0.27553
 Alpha virt. eigenvalues --    0.27946   0.29303   0.30424   0.31822   0.32031

 Mulliken charges:
               1
     1  C   -0.173842
     2  C   -0.220547
     3  C   -0.171416
     4  C    0.156867
     5  C   -0.172226
     6  C   -0.220289
     7  H    0.247313
     8  H    0.224508
     9  H    0.273423
    10  H    0.271502
    11  H    0.218637
    12  N    0.488353
    13  O   -0.463523
    14  O   -0.462034
    15  C   -0.169708
    16  C   -0.218514
    17  C   -0.170757
    18  C    0.155847
    19  C   -0.172879
    20  C   -0.218595
    21  H    0.228940
    22  H    0.226351
    23  H    0.276812
    24  H    0.276240
    25  H    0.226584
    26  N    0.486862
    27  O   -0.466411
    28  O   -0.457500
 Sum of Mulliken charges =  -0.00000

 Dipole moment (field-independent basis, Debye):
    X=              7.7752    Y=             -1.5156    Z=             -0.0681  Tot=              7.9218
 Quadrupole moment (field-independent basis, Debye-Ang):
   XX=           -118.1453   YY=           -104.6314   ZZ=           -101.9829
   XY=            -30.5033   XZ=             -3.6558   YZ=             -1.0135

 Normal termination of Gaussian 16 at Wed May  5 22:37:29 2021.
