 Gaussian 16, Revision A.03,
 Gaussian 16:  EM64L-G16RevA.03 25-Dec-2016

 -------------
 #p 6-31g* mp2
 -------------

 ------------------------------------------------------
 Input file generated by CHIRIPA (05-May-2021 14:55:20)
 ------------------------------------------------------
 Symbolic Z-matrix:
 Charge =  0 Multiplicity = 1

                         Standard orientation:
 ---------------------------------------------------------------------
 Center     Atomic      Atomic             Coordinates (Angstroms)
 Number     Number       Type             X           Y           Z
 ---------------------------------------------------------------------
      1          6           0       -4.586104   -1.160878   -1.275022
      2          6           0       -4.915636   -0.736818    0.016528
      3          6           0       -3.959573   -0.115262    0.825330
      4          6           0       -2.677880    0.067116    0.308329
      5          6           0       -2.318920   -0.344311   -0.974312
      6          6           0       -3.291081   -0.963619   -1.765456
      7          1           0       -5.335049   -1.642845   -1.896460
      8          1           0       -5.920575   -0.888703    0.400029
      9          1           0       -4.187651    0.222803    1.828879
     10          1           0       -1.308794   -0.179108   -1.328956
     11          1           0       -3.032328   -1.291925   -2.768106
     12          7           0       -1.657218    0.723939    1.155224
     13          8           0       -0.535096    0.872966    0.676402
     14          8           0       -1.998671    1.077293    2.281806
     15          6           0        4.218688   -0.403165   -0.005647
     16          6           0        3.796828   -1.858951    0.196105
     17          6           0        4.959465   -2.758468    0.616743
     18          1           0        5.011242   -0.359633   -0.765192
     19          1           0        4.658404   -0.023504    0.927038
     20          1           0        3.356776   -2.235329   -0.736263
     21          1           0        3.005052   -1.899002    0.955120
     22          1           0        5.394824   -2.410008    1.558889
     23          1           0        5.748546   -2.748246   -0.142104
     24          1           0        4.635561   -3.794669    0.755432
     25          6           0        3.067321    0.508475   -0.426353
     26          6           0        3.489181    1.964262   -0.628105
     27          6           0        2.326543    2.863780   -1.048743
     28          1           0        2.627605    0.128813   -1.359038
     29          1           0        2.274767    0.464944    0.333192
     30          1           0        4.280957    2.004313   -1.387120
     31          1           0        3.929233    2.340640    0.304263
     32          1           0        1.537462    2.853556   -0.289896
     33          1           0        1.891185    2.515319   -1.990889
     34          1           0        2.650448    3.899979   -1.187432
 ---------------------------------------------------------------------

 SCF Done:  E(RHF) =  -669.536297445     A.U. after   15 cycles
 E2 =    -0.2091482978D+01 EUMP2 =    -0.67162778042222D+03

 The electronic state is 1-A.
 Alpha  occ. eigenvalues --  -20.60994 -20.60985 -15.86021 -11.31303 -11.27866
 Alpha  occ. eigenvalues --  -11.27853 -11.27599 -11.26865 -11.26854 -11.20956
 Alpha  occ. eigenvalues --  -11.20573 -11.20564 -11.20554 -11.20195 -11.19890
 Alpha  occ. eigenvalues --   -1.60052  -1.39609  -1.19470  -1.08883  -1.07515
 Alpha  occ. eigenvalues --   -1.04860  -1.02661  -0.95731  -0.95099  -0.86262
 Alpha  occ. eigenvalues --   -0.86119  -0.82571  -0.78757  -0.77655  -0.77253
 Alpha  occ. eigenvalues --   -0.72249  -0.71360  -0.70579  -0.65130  -0.64864
 Alpha  occ. eigenvalues --   -0.64137  -0.62206  -0.60055  -0.58494  -0.56709
 Alpha  occ. eigenvalues --   -0.55369  -0.54376  -0.53194  -0.52952  -0.51842
 Alpha  occ. eigenvalues --   -0.51518  -0.49044  -0.49016  -0.48996  -0.47059
 Alpha  occ. eigenvalues --   -0.45790  -0.45029  -0.44865  -0.44630  -0.42899
 Alpha  occ. eigenvalues --   -0.37448  -0.36459
 Alpha virt. eigenvalues --    0.04878   0.11196   0.16362   0.21221   0.23701
 Alpha virt. eigenvalues --    0.24994   0.27006   0.27642   0.27743   0.28865
 Alpha virt. eigenvalues --    0.28949   0.30976   0.32086   0.32301   0.32739

 Mulliken charges:
               1
     1  C   -0.170456
     2  C   -0.218671
     3  C   -0.170483
     4  C    0.157212
     5  C   -0.170598
     6  C   -0.218615
     7  H    0.226052
     8  H    0.223811
     9  H    0.275768
    10  H    0.276852
    11  H    0.223975
    12  N    0.495039
    13  O   -0.466671
    14  O   -0.458834
    15  C   -0.297453
    16  C   -0.298962
    17  C   -0.475046
    18  H    0.145213
    19  H    0.149366
    20  H    0.147035
    21  H    0.155123
    22  H    0.155443
    23  H    0.153304
    24  H    0.157354
    25  C   -0.306457
    26  C   -0.297877
    27  C   -0.480598
    28  H    0.139099
    29  H    0.177157
    30  H    0.145309
    31  H    0.151224
    32  H    0.176715
    33  H    0.145971
    34  H    0.153702
 Sum of Mulliken charges =  -0.00000

 Dipole moment (field-independent basis, Debye):
    X=             -3.9289    Y=             -2.2822    Z=             -2.7927  Tot=              5.3333
 Quadrupole moment (field-independent basis, Debye-Ang):
   XX=            -75.1467   YY=            -96.9208   ZZ=            -93.5453
   XY=              6.3647   XZ=              4.3312   YZ=              0.3439

 Normal termination of Gaussian 16 at Thu May  6 06:07:42 2021.
