 Gaussian 16, Revision A.03,
 Gaussian 16:  EM64L-G16RevA.03 25-Dec-2016

 -------------
 #p 6-31g* mp2
 -------------

 ------------------------------------------------------
 Input file generated by CHIRIPA (05-May-2021 14:55:25)
 ------------------------------------------------------
 Symbolic Z-matrix:
 Charge =  0 Multiplicity = 1

                         Standard orientation:
 ---------------------------------------------------------------------
 Center     Atomic      Atomic             Coordinates (Angstroms)
 Number     Number       Type             X           Y           Z
 ---------------------------------------------------------------------
      1          6           0       -2.039939    2.648622    0.150054
      2          6           0       -3.153550    2.377182   -0.651638
      3          6           0       -3.704652    1.092909   -0.690077
      4          6           0       -3.114199    0.099392    0.089397
      5          6           0       -2.004281    0.338570    0.898202
      6          6           0       -1.469864    1.630245    0.921056
      7          1           0       -1.618310    3.649151    0.173861
      8          1           0       -3.598357    3.166113   -1.251454
      9          1           0       -4.566421    0.855183   -1.301845
     10          1           0       -1.582777   -0.468455    1.485110
     11          1           0       -0.604981    1.838157    1.544591
     12          7           0       -3.688795   -1.264129    0.056953
     13          8           0       -3.150115   -2.122044    0.752972
     14          8           0       -4.666963   -1.449122   -0.663882
     15          6           0        4.432430   -0.069366    0.255604
     16          6           0        5.704672    0.090232   -0.577411
     17          6           0        6.830873    0.783147    0.190268
     18          1           0        4.094532    0.920840    0.590660
     19          1           0        4.666189   -0.643397    1.162930
     20          1           0        5.468288    0.662604   -1.483572
     21          1           0        6.039473   -0.900451   -0.910683
     22          1           0        7.095229    0.211451    1.085746
     23          1           0        6.520798    1.783388    0.509602
     24          1           0        7.730784    0.886879   -0.423948
     25          6           0        3.297487   -0.760372   -0.498149
     26          6           0        2.025246   -0.919969    0.334866
     27          6           0        0.899044   -1.612885   -0.432813
     28          1           0        3.063729   -0.186340   -1.405474
     29          1           0        3.635386   -1.750577   -0.833204
     30          1           0        1.690445    0.070715    0.668138
     31          1           0        2.261630   -1.492342    1.241028
     32          1           0        1.209121   -2.613125   -0.752146
     33          1           0        0.634689   -1.041188   -1.328290
     34          1           0       -0.000865   -1.716615    0.181404
 ---------------------------------------------------------------------

 SCF Done:  E(RHF) =  -669.535194131     A.U. after   15 cycles
 E2 =    -0.2092433690D+01 EUMP2 =    -0.67162762782163D+03

 The electronic state is 1-A.
 Alpha  occ. eigenvalues --  -20.60822 -20.60813 -15.85858 -11.31199 -11.27785
 Alpha  occ. eigenvalues --  -11.27780 -11.27528 -11.26790 -11.26780 -11.21921
 Alpha  occ. eigenvalues --  -11.21844 -11.21682 -11.21614 -11.21307 -11.21077
 Alpha  occ. eigenvalues --   -1.59882  -1.39439  -1.19386  -1.08781  -1.08692
 Alpha  occ. eigenvalues --   -1.04794  -1.03756  -0.96187  -0.95616  -0.87198
 Alpha  occ. eigenvalues --   -0.86185  -0.82453  -0.79828  -0.78518  -0.77506
 Alpha  occ. eigenvalues --   -0.72080  -0.71198  -0.70514  -0.65328  -0.65038
 Alpha  occ. eigenvalues --   -0.64806  -0.62208  -0.61146  -0.59538  -0.57808
 Alpha  occ. eigenvalues --   -0.55469  -0.55291  -0.53225  -0.52982  -0.52735
 Alpha  occ. eigenvalues --   -0.52474  -0.50106  -0.48841  -0.48834  -0.48135
 Alpha  occ. eigenvalues --   -0.46872  -0.46055  -0.45981  -0.44855  -0.43985
 Alpha  occ. eigenvalues --   -0.37359  -0.36353
 Alpha virt. eigenvalues --    0.05002   0.11204   0.16435   0.20443   0.22754
 Alpha virt. eigenvalues --    0.24027   0.25713   0.26577   0.26999   0.28099
 Alpha virt. eigenvalues --    0.28940   0.29475   0.31379   0.31578   0.32137

 Mulliken charges:
               1
     1  C   -0.170937
     2  C   -0.218697
     3  C   -0.170822
     4  C    0.158628
     5  C   -0.167711
     6  C   -0.220162
     7  H    0.225617
     8  H    0.223442
     9  H    0.275674
    10  H    0.276498
    11  H    0.224443
    12  N    0.488934
    13  O   -0.461655
    14  O   -0.459642
    15  C   -0.297835
    16  C   -0.299813
    17  C   -0.475711
    18  H    0.145927
    19  H    0.150324
    20  H    0.151715
    21  H    0.153488
    22  H    0.155789
    23  H    0.153884
    24  H    0.161100
    25  C   -0.297947
    26  C   -0.301503
    27  C   -0.479634
    28  H    0.149559
    29  H    0.152567
    30  H    0.141418
    31  H    0.153159
    32  H    0.159474
    33  H    0.155148
    34  H    0.165282
 Sum of Mulliken charges =  -0.00000

 Dipole moment (field-independent basis, Debye):
    X=              2.0041    Y=              4.7360    Z=              0.0595  Tot=              5.1429
 Quadrupole moment (field-independent basis, Debye-Ang):
   XX=           -105.8798   YY=            -93.1350   ZZ=            -93.2396
   XY=            -17.0299   XZ=              2.1146   YZ=             -1.2107

 Normal termination of Gaussian 16 at Thu May  6 00:02:10 2021.
