 Gaussian 16, Revision A.03,
 Gaussian 16:  EM64L-G16RevA.03 25-Dec-2016

 -------------
 #p 6-31g* mp2
 -------------

 ------------------------------------------------------
 Input file generated by CHIRIPA (05-May-2021 14:51:08)
 ------------------------------------------------------
 Symbolic Z-matrix:
 Charge =  0 Multiplicity = 1

                         Standard orientation:
 ---------------------------------------------------------------------
 Center     Atomic      Atomic             Coordinates (Angstroms)
 Number     Number       Type             X           Y           Z
 ---------------------------------------------------------------------
      1          6           0       -3.894617   -0.056431    0.681149
      2          6           0       -2.634108    0.616045    0.136285
      3          6           0       -1.524557    0.727933    1.182312
      4          1           0       -4.260870    0.512210    1.546857
      5          1           0       -3.636397   -1.058133    1.051703
      6          1           0       -2.894892    1.615647   -0.234396
      7          1           0       -2.270923    0.045846   -0.728345
      8          1           0       -1.235915   -0.263788    1.545322
      9          1           0       -1.863430    1.314933    2.042078
     10          1           0       -0.632842    1.211630    0.771530
     11          6           0       -5.012863   -0.175574   -0.352805
     12          6           0       -6.273372   -0.848050    0.192059
     13          6           0       -7.382923   -0.959938   -0.853968
     14          1           0       -5.271083    0.826128   -0.723359
     15          1           0       -4.646611   -0.744215   -1.218513
     16          1           0       -6.636558   -0.277850    1.056689
     17          1           0       -6.012588   -1.847652    0.562740
     18          1           0       -7.044050   -1.546938   -1.713734
     19          1           0       -7.671565    0.031783   -1.216978
     20          1           0       -8.274638   -1.443635   -0.443186
     21          6           0        3.757071    0.392014   -0.312165
     22          6           0        3.663540    1.911358   -0.167840
     23          6           0        2.263666    2.448541   -0.467144
     24          1           0        3.464262    0.108263   -1.332308
     25          1           0        3.030255   -0.078984    0.364070
     26          1           0        4.391283    2.379314   -0.843136
     27          1           0        3.956791    2.191542    0.852022
     28          1           0        1.528429    2.008867    0.214555
     29          1           0        1.965390    2.197705   -1.490235
     30          1           0        2.219378    3.536648   -0.357966
     31          6           0        5.150409   -0.160009   -0.016179
     32          6           0        5.243940   -1.679353   -0.160504
     33          6           0        6.643814   -2.216536    0.138799
     34          1           0        5.877226    0.310989   -0.692414
     35          1           0        5.443219    0.123741    1.003964
     36          1           0        4.950690   -1.959537   -1.180365
     37          1           0        4.516197   -2.147309    0.514791
     38          1           0        6.942091   -1.965701    1.161889
     39          1           0        7.379052   -1.776861   -0.542899
     40          1           0        6.688103   -3.304643    0.029622
 ---------------------------------------------------------------------

 SCF Done:  E(RHF) =  -470.733344193     A.U. after   11 cycles
 E2 =    -0.1582218744D+01 EUMP2 =    -0.47231556293666D+03

 The electronic state is 1-A.
 Alpha  occ. eigenvalues --  -11.21602 -11.21597 -11.21591 -11.21578 -11.21398
 Alpha  occ. eigenvalues --  -11.21389 -11.21339 -11.21330 -11.21076 -11.21068
 Alpha  occ. eigenvalues --  -11.21062 -11.21044  -1.08427  -1.08413  -1.03537
 Alpha  occ. eigenvalues --   -1.03506  -0.96004  -0.95945  -0.87038  -0.86947
 Alpha  occ. eigenvalues --   -0.79621  -0.79549  -0.78239  -0.78224  -0.65058
 Alpha  occ. eigenvalues --   -0.65043  -0.60947  -0.60908  -0.59401  -0.59303
 Alpha  occ. eigenvalues --   -0.57695  -0.57482  -0.55277  -0.55250  -0.52791
 Alpha  occ. eigenvalues --   -0.52667  -0.52449  -0.52240  -0.49908  -0.49906
 Alpha  occ. eigenvalues --   -0.47995  -0.47802  -0.46620  -0.46606  -0.45784
 Alpha  occ. eigenvalues --   -0.45764  -0.45703  -0.45691  -0.43784  -0.43738
 Alpha virt. eigenvalues --    0.22124   0.23001   0.23474   0.24770   0.26175
 Alpha virt. eigenvalues --    0.26672   0.26968   0.27513   0.27738   0.28728
 Alpha virt. eigenvalues --    0.30117   0.31424   0.31726   0.31914   0.31992

 Mulliken charges:
               1
     1  C   -0.298613
     2  C   -0.298545
     3  C   -0.484350
     4  H    0.149574
     5  H    0.149406
     6  H    0.152165
     7  H    0.152101
     8  H    0.154713
     9  H    0.155122
    10  H    0.168127
    11  C   -0.298214
    12  C   -0.299622
    13  C   -0.475694
    14  H    0.149555
    15  H    0.149643
    16  H    0.151914
    17  H    0.151886
    18  H    0.155165
    19  H    0.155185
    20  H    0.160207
    21  C   -0.298517
    22  C   -0.299131
    23  C   -0.483398
    24  H    0.149527
    25  H    0.149965
    26  H    0.151953
    27  H    0.152083
    28  H    0.161936
    29  H    0.155286
    30  H    0.160578
    31  C   -0.298316
    32  C   -0.299663
    33  C   -0.475706
    34  H    0.149497
    35  H    0.149723
    36  H    0.151874
    37  H    0.151990
    38  H    0.155212
    39  H    0.155167
    40  H    0.160214
 Sum of Mulliken charges =  -0.00000

 Dipole moment (field-independent basis, Debye):
    X=              0.0088    Y=              0.0074    Z=             -0.0038  Tot=              0.0121
 Quadrupole moment (field-independent basis, Debye-Ang):
   XX=            -86.3612   YY=            -84.2496   ZZ=            -84.1841
   XY=              0.0577   XZ=             -1.0820   YZ=              0.1702

 Normal termination of Gaussian 16 at Thu May  6 03:39:40 2021.
