 Gaussian 16, Revision A.03,
 Gaussian 16:  EM64L-G16RevA.03 25-Dec-2016

 -------------
 #p 6-31g* mp2
 -------------

 ------------------------------------------------------
 Input file generated by CHIRIPA (05-May-2021 14:51:09)
 ------------------------------------------------------
 Symbolic Z-matrix:
 Charge =  0 Multiplicity = 1

                         Standard orientation:
 ---------------------------------------------------------------------
 Center     Atomic      Atomic             Coordinates (Angstroms)
 Number     Number       Type             X           Y           Z
 ---------------------------------------------------------------------
      1          6           0        3.801158    0.389524    0.277151
      2          6           0        5.003320    0.545431   -0.654774
      3          6           0        5.848272    1.777296   -0.328645
      4          1           0        3.176892    1.291322    0.213936
      5          1           0        4.156326    0.327363    1.315123
      6          1           0        4.646079    0.605889   -1.690795
      7          1           0        5.624695   -0.356924   -0.589477
      8          1           0        6.232471    1.720923    0.694983
      9          1           0        5.248294    2.689206   -0.412593
     10          1           0        6.702251    1.869413   -1.006947
     11          6           0        2.946751   -0.837451   -0.036301
     12          6           0        1.744589   -0.993358    0.895624
     13          6           0        0.899637   -2.225223    0.569495
     14          1           0        2.591583   -0.775291   -1.074273
     15          1           0        3.571017   -1.739249    0.026914
     16          1           0        1.123214   -0.091003    0.830327
     17          1           0        2.101830   -1.053816    1.931645
     18          1           0        1.499615   -3.137133    0.653443
     19          1           0        0.515438   -2.168850   -0.454133
     20          1           0        0.045658   -2.317340    1.247798
     21          6           0       -2.923316   -0.387837   -0.042597
     22          6           0       -3.569842   -1.683557   -0.533615
     23          6           0       -2.656023   -2.898627   -0.371333
     24          1           0       -1.987543   -0.220818   -0.593395
     25          1           0       -2.647493   -0.501716    1.014923
     26          1           0       -3.845619   -1.566783   -1.589517
     27          1           0       -4.504282   -1.847411    0.018280
     28          1           0       -2.390629   -3.043255    0.680926
     29          1           0       -1.728223   -2.761033   -0.936006
     30          1           0       -3.138014   -3.814013   -0.728563
     31          6           0       -3.824593    0.835764   -0.198253
     32          6           0       -3.178067    2.131484    0.292765
     33          6           0       -4.091886    3.346553    0.130483
     34          1           0       -4.100416    0.949643   -1.255772
     35          1           0       -4.760366    0.668745    0.352545
     36          1           0       -2.243626    2.295338   -0.259130
     37          1           0       -2.902290    2.014711    1.348667
     38          1           0       -5.019686    3.208961    0.695156
     39          1           0       -4.357280    3.491183   -0.921776
     40          1           0       -3.609895    4.261940    0.487713
 ---------------------------------------------------------------------

 SCF Done:  E(RHF) =  -470.732206912     A.U. after   11 cycles
 E2 =    -0.1583415751D+01 EUMP2 =    -0.47231562266253D+03

 The electronic state is 1-A.
 Alpha  occ. eigenvalues --  -11.21618 -11.21590 -11.21565 -11.21534 -11.21406
 Alpha  occ. eigenvalues --  -11.21381 -11.21347 -11.21321 -11.21084 -11.21063
 Alpha  occ. eigenvalues --  -11.20949 -11.20939  -1.08433  -1.08391  -1.03550
 Alpha  occ. eigenvalues --   -1.03454  -0.96022  -0.95880  -0.87080  -0.86861
 Alpha  occ. eigenvalues --   -0.79693  -0.79447  -0.78247  -0.78202  -0.65095
 Alpha  occ. eigenvalues --   -0.65001  -0.61018  -0.60814  -0.59452  -0.59206
 Alpha  occ. eigenvalues --   -0.57595  -0.57544  -0.55377  -0.55121  -0.52833
 Alpha  occ. eigenvalues --   -0.52646  -0.52387  -0.52184  -0.50061  -0.49748
 Alpha  occ. eigenvalues --   -0.47903  -0.47840  -0.46703  -0.46460  -0.45834
 Alpha  occ. eigenvalues --   -0.45727  -0.45692  -0.45592  -0.43775  -0.43698
 Alpha virt. eigenvalues --    0.21266   0.23196   0.23519   0.24952   0.25344
 Alpha virt. eigenvalues --    0.26476   0.26825   0.27350   0.28120   0.29184
 Alpha virt. eigenvalues --    0.29599   0.31254   0.31780   0.31928   0.32535

 Mulliken charges:
               1
     1  C   -0.298172
     2  C   -0.299590
     3  C   -0.475677
     4  H    0.149538
     5  H    0.149526
     6  H    0.151737
     7  H    0.151933
     8  H    0.155188
     9  H    0.155123
    10  H    0.160185
    11  C   -0.298413
    12  C   -0.300981
    13  C   -0.476240
    14  H    0.148915
    15  H    0.149603
    16  H    0.152651
    17  H    0.151377
    18  H    0.154063
    19  H    0.155455
    20  H    0.163479
    21  C   -0.299111
    22  C   -0.300021
    23  C   -0.477196
    24  H    0.150256
    25  H    0.149461
    26  H    0.151388
    27  H    0.151520
    28  H    0.155229
    29  H    0.159924
    30  H    0.159059
    31  C   -0.298308
    32  C   -0.299560
    33  C   -0.475685
    34  H    0.149477
    35  H    0.149788
    36  H    0.151360
    37  H    0.152016
    38  H    0.155289
    39  H    0.155176
    40  H    0.160240
 Sum of Mulliken charges =  -0.00000

 Dipole moment (field-independent basis, Debye):
    X=             -0.0101    Y=             -0.0176    Z=              0.0062  Tot=              0.0212
 Quadrupole moment (field-independent basis, Debye-Ang):
   XX=            -85.2929   YY=            -86.1208   ZZ=            -83.5046
   XY=             -0.3636   XZ=             -0.1218   YZ=             -0.5786

 Normal termination of Gaussian 16 at Wed May  5 15:08:08 2021.
