 Gaussian 16, Revision A.03,
 Gaussian 16:  EM64L-G16RevA.03 25-Dec-2016

 -------------
 #p 6-31g* mp2
 -------------

 ------------------------------------------------------
 Input file generated by CHIRIPA (05-May-2021 14:51:10)
 ------------------------------------------------------
 Symbolic Z-matrix:
 Charge =  0 Multiplicity = 1

                         Standard orientation:
 ---------------------------------------------------------------------
 Center     Atomic      Atomic             Coordinates (Angstroms)
 Number     Number       Type             X           Y           Z
 ---------------------------------------------------------------------
      1          6           0        3.147308   -0.314873    0.386041
      2          6           0        3.255335   -1.541685   -0.520185
      3          6           0        3.176699   -2.857586    0.254422
      4          1           0        3.949451   -0.349076    1.135935
      5          1           0        2.199410   -0.359228    0.940042
      6          1           0        4.202115   -1.494324   -1.073340
      7          1           0        2.452957   -1.504459   -1.268129
      8          1           0        2.226614   -2.931139    0.793431
      9          1           0        3.985711   -2.920946    0.989327
     10          1           0        3.256004   -3.721544   -0.412772
     11          6           0        3.224253    1.008204   -0.373746
     12          6           0        3.116225    2.235016    0.532480
     13          6           0        3.194862    3.550917   -0.242127
     14          1           0        4.172151    1.052559   -0.927747
     15          1           0        2.422109    1.042406   -1.123640
     16          1           0        3.918603    2.197790    1.280424
     17          1           0        2.169445    2.187655    1.085635
     18          1           0        2.385849    3.614277   -0.977032
     19          1           0        4.144946    3.624469   -0.781136
     20          1           0        3.115556    4.414875    0.425066
     21          6           0       -2.426005   -0.386804    0.061396
     22          6           0       -1.873924   -1.799638   -0.131193
     23          6           0       -0.352538   -1.863741    0.006898
     24          1           0       -1.961102    0.284958   -0.673143
     25          1           0       -2.131052   -0.017453    1.053353
     26          1           0       -2.171002   -2.166745   -1.121947
     27          1           0       -2.340338   -2.468153    0.603765
     28          1           0       -0.041117   -1.522855    0.999578
     29          1           0        0.129181   -1.219735   -0.735938
     30          1           0        0.020825   -2.882799   -0.134451
     31          6           0       -3.945556   -0.306527   -0.073690
     32          6           0       -4.497636    1.106308    0.118898
     33          6           0       -6.019022    1.170410   -0.019193
     34          1           0       -4.240508   -0.675877   -1.065647
     35          1           0       -4.410459   -0.978288    0.660848
     36          1           0       -4.031222    1.774822   -0.616059
     37          1           0       -4.200559    1.473414    1.109652
     38          1           0       -6.500742    0.526404    0.723643
     39          1           0       -6.330443    0.829524   -1.011874
     40          1           0       -6.392386    2.189469    0.122157
 ---------------------------------------------------------------------

 SCF Done:  E(RHF) =  -470.731204046     A.U. after   11 cycles
 E2 =    -0.1584669874D+01 EUMP2 =    -0.47231587392014D+03

 The electronic state is 1-A.
 Alpha  occ. eigenvalues --  -11.21658 -11.21642 -11.21550 -11.21469 -11.21426
 Alpha  occ. eigenvalues --  -11.21405 -11.21316 -11.21202 -11.21148 -11.21102
 Alpha  occ. eigenvalues --  -11.21036 -11.20864  -1.08503  -1.08322  -1.03639
 Alpha  occ. eigenvalues --   -1.03392  -0.96085  -0.95857  -0.87097  -0.86898
 Alpha  occ. eigenvalues --   -0.79695  -0.79494  -0.78315  -0.78143  -0.65137
 Alpha  occ. eigenvalues --   -0.64969  -0.61038  -0.60874  -0.59418  -0.59251
 Alpha  occ. eigenvalues --   -0.57690  -0.57483  -0.55367  -0.55209  -0.52727
 Alpha  occ. eigenvalues --   -0.52576  -0.52494  -0.52250  -0.50130  -0.49730
 Alpha  occ. eigenvalues --   -0.48016  -0.47752  -0.46893  -0.46373  -0.45939
 Alpha  occ. eigenvalues --   -0.45817  -0.45567  -0.45402  -0.43805  -0.43674
 Alpha virt. eigenvalues --    0.21192   0.23006   0.23939   0.24753   0.25646
 Alpha virt. eigenvalues --    0.26069   0.27298   0.27489   0.28044   0.29720
 Alpha virt. eigenvalues --    0.30559   0.31255   0.31478   0.31935   0.32468

 Mulliken charges:
               1
     1  C   -0.302598
     2  C   -0.300212
     3  C   -0.480078
     4  H    0.148936
     5  H    0.154593
     6  H    0.151260
     7  H    0.153679
     8  H    0.161517
     9  H    0.153915
    10  H    0.158329
    11  C   -0.298181
    12  C   -0.299538
    13  C   -0.475580
    14  H    0.149353
    15  H    0.148320
    16  H    0.151844
    17  H    0.151864
    18  H    0.154878
    19  H    0.155087
    20  H    0.160045
    21  C   -0.298664
    22  C   -0.300515
    23  C   -0.480651
    24  H    0.149275
    25  H    0.149297
    26  H    0.152080
    27  H    0.152110
    28  H    0.156163
    29  H    0.158574
    30  H    0.164228
    31  C   -0.298291
    32  C   -0.299667
    33  C   -0.475744
    34  H    0.149686
    35  H    0.149850
    36  H    0.151935
    37  H    0.151974
    38  H    0.155262
    39  H    0.155253
    40  H    0.160411
 Sum of Mulliken charges =  -0.00000

 Dipole moment (field-independent basis, Debye):
    X=             -0.0769    Y=             -0.0250    Z=              0.0092  Tot=              0.0814
 Quadrupole moment (field-independent basis, Debye-Ang):
   XX=            -85.2891   YY=            -85.9202   ZZ=            -83.9449
   XY=              0.2981   XZ=             -0.0203   YZ=              0.2623

 Normal termination of Gaussian 16 at Thu May  6 05:21:57 2021.
