 Gaussian 16, Revision A.03,
 Gaussian 16:  EM64L-G16RevA.03 25-Dec-2016

 -------------
 #p 6-31g* mp2
 -------------

 ------------------------------------------------------
 Input file generated by CHIRIPA (05-May-2021 14:55:20)
 ------------------------------------------------------
 Symbolic Z-matrix:
 Charge =  0 Multiplicity = 1

                         Standard orientation:
 ---------------------------------------------------------------------
 Center     Atomic      Atomic             Coordinates (Angstroms)
 Number     Number       Type             X           Y           Z
 ---------------------------------------------------------------------
      1          6           0        2.365998    2.528455   -0.141511
      2          6           0        1.668331    1.392191   -0.564222
      3          6           0        2.268666    0.130622   -0.513338
      4          6           0        3.573891    0.041432   -0.031963
      5          6           0        4.295033    1.154858    0.396438
      6          6           0        3.674815    2.406377    0.336627
      7          1           0        1.891921    3.504569   -0.184507
      8          1           0        0.651774    1.483998   -0.936012
      9          1           0        1.751530   -0.765503   -0.834194
     10          1           0        5.307200    1.031725    0.762191
     11          1           0        4.219041    3.287089    0.665580
     12          7           0        4.219963   -1.288815    0.026631
     13          8           0        5.370872   -1.340700    0.454831
     14          8           0        3.563213   -2.254389   -0.356752
     15          6           0       -3.850342   -0.694765    0.380929
     16          6           0       -2.586008   -0.699057   -0.478970
     17          6           0       -1.418543   -1.425172    0.190042
     18          1           0       -3.627477   -0.221448    1.346976
     19          1           0       -4.139676   -1.731847    0.600338
     20          1           0       -2.299930    0.337702   -0.697847
     21          1           0       -2.811958   -1.172247   -1.443156
     22          1           0       -1.679731   -2.468680    0.393688
     23          1           0       -1.164795   -0.950153    1.143232
     24          1           0       -0.525028   -1.416215   -0.441948
     25          6           0       -5.026230    0.027442   -0.274381
     26          6           0       -6.290564    0.031736    0.585518
     27          6           0       -7.458029    0.757850   -0.083495
     28          1           0       -4.736896    1.064525   -0.493790
     29          1           0       -5.249094   -0.445874   -1.240429
     30          1           0       -6.064614    0.504925    1.549705
     31          1           0       -6.576641   -1.005024    0.804395
     32          1           0       -7.711777    0.282831   -1.036684
     33          1           0       -7.196841    1.801359   -0.287140
     34          1           0       -8.351544    0.748893    0.548495
 ---------------------------------------------------------------------

 SCF Done:  E(RHF) =  -669.535289464     A.U. after   15 cycles
 E2 =    -0.2091320885D+01 EUMP2 =    -0.67162661034931D+03

 The electronic state is 1-A.
 Alpha  occ. eigenvalues --  -20.60728 -20.60722 -15.85780 -11.31142 -11.27720
 Alpha  occ. eigenvalues --  -11.27700 -11.27468 -11.26740 -11.26721 -11.22242
 Alpha  occ. eigenvalues --  -11.21937 -11.21861 -11.21778 -11.21668 -11.21366
 Alpha  occ. eigenvalues --   -1.59802  -1.39356  -1.19321  -1.08891  -1.08717
 Alpha  occ. eigenvalues --   -1.04728  -1.03996  -0.96436  -0.95552  -0.87451
 Alpha  occ. eigenvalues --   -0.86123  -0.82383  -0.80062  -0.78691  -0.77432
 Alpha  occ. eigenvalues --   -0.72000  -0.71125  -0.70446  -0.65522  -0.64976
 Alpha  occ. eigenvalues --   -0.64734  -0.62155  -0.61375  -0.59794  -0.58045
 Alpha  occ. eigenvalues --   -0.55701  -0.55234  -0.53245  -0.53023  -0.52892
 Alpha  occ. eigenvalues --   -0.52695  -0.50354  -0.48758  -0.48754  -0.48373
 Alpha  occ. eigenvalues --   -0.47094  -0.46232  -0.46152  -0.44762  -0.44249
 Alpha  occ. eigenvalues --   -0.37307  -0.36316
 Alpha virt. eigenvalues --    0.05095   0.11316   0.16556   0.19549   0.22649
 Alpha virt. eigenvalues --    0.23758   0.25642   0.25955   0.26719   0.27846
 Alpha virt. eigenvalues --    0.28720   0.29522   0.31138   0.31528   0.32019

 Mulliken charges:
               1
     1  C   -0.171132
     2  C   -0.221268
     3  C   -0.175531
     4  C    0.159608
     5  C   -0.170733
     6  C   -0.218697
     7  H    0.225355
     8  H    0.225571
     9  H    0.280785
    10  H    0.275477
    11  H    0.223242
    12  N    0.487759
    13  O   -0.460641
    14  O   -0.460175
    15  C   -0.298930
    16  C   -0.300470
    17  C   -0.478216
    18  H    0.150260
    19  H    0.152789
    20  H    0.143655
    21  H    0.154906
    22  H    0.163011
    23  H    0.158056
    24  H    0.153780
    25  C   -0.298315
    26  C   -0.300035
    27  C   -0.475886
    28  H    0.147572
    29  H    0.150779
    30  H    0.152139
    31  H    0.153431
    32  H    0.155860
    33  H    0.154554
    34  H    0.161443
 Sum of Mulliken charges =  -0.00000

 Dipole moment (field-independent basis, Debye):
    X=             -2.4240    Y=              4.6089    Z=             -0.1480  Tot=              5.2095
 Quadrupole moment (field-independent basis, Debye-Ang):
   XX=           -108.1149   YY=            -93.3019   ZZ=            -94.7830
   XY=             19.7720   XZ=              0.8505   YZ=              1.2741

 Normal termination of Gaussian 16 at Wed May  5 15:51:38 2021.
