 Gaussian 16, Revision A.03,
 Gaussian 16:  EM64L-G16RevA.03 25-Dec-2016

 -------------
 #p 6-31g* mp2
 -------------

 ------------------------------------------------------
 Input file generated by CHIRIPA (05-May-2021 14:53:15)
 ------------------------------------------------------
 Symbolic Z-matrix:
 Charge =  0 Multiplicity = 1

                         Standard orientation:
 ---------------------------------------------------------------------
 Center     Atomic      Atomic             Coordinates (Angstroms)
 Number     Number       Type             X           Y           Z
 ---------------------------------------------------------------------
      1          6           0        3.469057    0.630582   -0.645461
      2          6           0        2.701084    1.641379    0.206885
      3          6           0        1.661616    2.423444   -0.596654
      4          1           0        3.963871    1.158530   -1.472126
      5          1           0        2.756159   -0.068945   -1.103537
      6          1           0        3.415338    2.337947    0.664324
      7          1           0        2.208197    1.110989    1.031727
      8          1           0        0.926848    1.743954   -1.040512
      9          1           0        2.140847    2.977884   -1.410003
     10          1           0        1.124369    3.140294    0.032115
     11          6           0        4.511841   -0.159042    0.143730
     12          6           0        5.279814   -1.169839   -0.708615
     13          6           0        6.319281   -1.951904    0.094924
     14          1           0        5.224739    0.540485    0.601806
     15          1           0        4.017026   -0.686990    0.970395
     16          1           0        5.772701   -0.639449   -1.533458
     17          1           0        4.565560   -1.866407   -1.166054
     18          1           0        5.840051   -2.506344    0.908272
     19          1           0        7.054050   -1.272414    0.538781
     20          1           0        6.856529   -2.668754   -0.533846
     21          6           0       -0.995176    0.647817    1.277311
     22          6           0       -1.305906   -0.715746    1.303046
     23          6           0       -2.479119   -1.187976    0.707129
     24          6           0       -3.322720   -0.264631    0.091450
     25          6           0       -3.040823    1.099935    0.049202
     26          6           0       -1.862098    1.549715    0.651575
     27          1           0       -0.081655    1.005938    1.742740
     28          1           0       -0.634505   -1.418463    1.788284
     29          1           0       -2.744109   -2.238296    0.712398
     30          1           0       -3.729732    1.776304   -0.442068
     31          1           0       -1.623343    2.609233    0.630053
     32          7           0       -4.567666   -0.752677   -0.542837
     33          8           0       -5.294313    0.081165   -1.078868
     34          8           0       -4.793234   -1.959809   -0.491951
 ---------------------------------------------------------------------

 SCF Done:  E(RHF) =  -669.534853231     A.U. after   15 cycles
 E2 =    -0.2092546934D+01 EUMP2 =    -0.67162740016487D+03

 The electronic state is 1-A.
 Alpha  occ. eigenvalues --  -20.60753 -20.60747 -15.85807 -11.31171 -11.27747
 Alpha  occ. eigenvalues --  -11.27729 -11.27442 -11.26758 -11.26726 -11.22664
 Alpha  occ. eigenvalues --  -11.22180 -11.22159 -11.22066 -11.22041 -11.21556
 Alpha  occ. eigenvalues --   -1.59829  -1.39382  -1.19347  -1.09212  -1.08736
 Alpha  occ. eigenvalues --   -1.04750  -1.04309  -0.96748  -0.95567  -0.87761
 Alpha  occ. eigenvalues --   -0.86138  -0.82408  -0.80390  -0.78993  -0.77453
 Alpha  occ. eigenvalues --   -0.72024  -0.71152  -0.70491  -0.65843  -0.64995
 Alpha  occ. eigenvalues --   -0.64756  -0.62108  -0.61703  -0.60136  -0.58355
 Alpha  occ. eigenvalues --   -0.56069  -0.55177  -0.53487  -0.53183  -0.53021
 Alpha  occ. eigenvalues --   -0.52815  -0.50654  -0.48795  -0.48779  -0.48679
 Alpha  occ. eigenvalues --   -0.47415  -0.46537  -0.46436  -0.44788  -0.44559
 Alpha  occ. eigenvalues --   -0.37286  -0.36348
 Alpha virt. eigenvalues --    0.05058   0.11257   0.16469   0.19627   0.22548
 Alpha virt. eigenvalues --    0.24072   0.25167   0.26011   0.26443   0.27861
 Alpha virt. eigenvalues --    0.28946   0.29602   0.30816   0.31567   0.31870

 Mulliken charges:
               1
     1  C   -0.299094
     2  C   -0.301656
     3  C   -0.480988
     4  H    0.153245
     5  H    0.152104
     6  H    0.155519
     7  H    0.141101
     8  H    0.163933
     9  H    0.160848
    10  H    0.151001
    11  C   -0.298238
    12  C   -0.300352
    13  C   -0.475999
    14  H    0.150874
    15  H    0.146442
    16  H    0.153746
    17  H    0.152934
    18  H    0.154609
    19  H    0.155923
    20  H    0.162423
    21  C   -0.171380
    22  C   -0.221077
    23  C   -0.171045
    24  C    0.158360
    25  C   -0.171848
    26  C   -0.218698
    27  H    0.231395
    28  H    0.222813
    29  H    0.275449
    30  H    0.275634
    31  H    0.224949
    32  N    0.488061
    33  O   -0.460392
    34  O   -0.460592
 Sum of Mulliken charges =  -0.00000

 Dipole moment (field-independent basis, Debye):
    X=              4.5482    Y=              1.7127    Z=              2.1180  Tot=              5.3014
 Quadrupole moment (field-independent basis, Debye-Ang):
   XX=           -123.8646   YY=            -91.3005   ZZ=            -94.8754
   XY=             -7.2253   XZ=             -7.5192   YZ=             -1.8845

 Normal termination of Gaussian 16 at Wed May  5 20:18:23 2021.
