 Gaussian 16, Revision A.03,
 Gaussian 16:  EM64L-G16RevA.03 25-Dec-2016

 -------------
 #p 6-31g* mp2
 -------------

 ------------------------------------------------------
 Input file generated by CHIRIPA (05-May-2021 14:55:25)
 ------------------------------------------------------
 Symbolic Z-matrix:
 Charge =  0 Multiplicity = 1

                         Standard orientation:
 ---------------------------------------------------------------------
 Center     Atomic      Atomic             Coordinates (Angstroms)
 Number     Number       Type             X           Y           Z
 ---------------------------------------------------------------------
      1          6           0       -0.502621   -1.027923   -0.089938
      2          6           0       -0.992870   -0.364978    1.039965
      3          6           0       -2.340379   -0.001363    1.120910
      4          6           0       -3.173322   -0.317714    0.048801
      5          6           0       -2.714831   -0.977491   -1.090396
      6          6           0       -1.363648   -1.331528   -1.149644
      7          1           0        0.545583   -1.306667   -0.144390
      8          1           0       -0.326490   -0.127911    1.864454
      9          1           0       -2.746347    0.512512    1.983778
     10          1           0       -3.403397   -1.200302   -1.896405
     11          1           0       -0.985684   -1.846313   -2.028385
     12          7           0       -4.601814    0.062159    0.123009
     13          8           0       -5.315134   -0.227953   -0.834930
     14          8           0       -4.981098    0.642821    1.137707
     15          6           0        3.078745    0.825830    0.014115
     16          6           0        3.071365    2.268305   -0.493027
     17          6           0        1.700473    2.933093   -0.364546
     18          1           0        2.333454    0.243545   -0.544840
     19          1           0        2.760957    0.812672    1.065891
     20          1           0        3.390402    2.278885   -1.543132
     21          1           0        3.816894    2.847177    0.067069
     22          1           0        1.378015    2.951993    0.681526
     23          1           0        0.949100    2.380471   -0.937825
     24          1           0        1.717906    3.963579   -0.732857
     25          6           0        4.442252    0.147795   -0.107735
     26          6           0        4.449632   -1.294681    0.399407
     27          6           0        5.820524   -1.959469    0.270925
     28          1           0        4.760039    0.160951   -1.159511
     29          1           0        5.187542    0.730079    0.451220
     30          1           0        3.704102   -1.873553   -0.160689
     31          1           0        4.130594   -1.305260    1.449512
     32          1           0        6.571897   -1.406847    0.844204
     33          1           0        6.142981   -1.978369   -0.775146
     34          1           0        5.803091   -2.989955    0.639236
 ---------------------------------------------------------------------

 SCF Done:  E(RHF) =  -669.535499037     A.U. after   15 cycles
 E2 =    -0.2092057340D+01 EUMP2 =    -0.67162755637683D+03

 The electronic state is 1-A.
 Alpha  occ. eigenvalues --  -20.60728 -20.60723 -15.85782 -11.31143 -11.27715
 Alpha  occ. eigenvalues --  -11.27704 -11.27412 -11.26729 -11.26711 -11.22607
 Alpha  occ. eigenvalues --  -11.22462 -11.22346 -11.22280 -11.21853 -11.21661
 Alpha  occ. eigenvalues --   -1.59804  -1.39357  -1.19314  -1.09360  -1.08705
 Alpha  occ. eigenvalues --   -1.04717  -1.04348  -0.96785  -0.95543  -0.87795
 Alpha  occ. eigenvalues --   -0.86111  -0.82381  -0.80424  -0.79225  -0.77425
 Alpha  occ. eigenvalues --   -0.71999  -0.71127  -0.70428  -0.65985  -0.64963
 Alpha  occ. eigenvalues --   -0.64719  -0.62066  -0.61740  -0.60157  -0.58414
 Alpha  occ. eigenvalues --   -0.56093  -0.55215  -0.53441  -0.53191  -0.53048
 Alpha  occ. eigenvalues --   -0.52807  -0.50720  -0.48760  -0.48756  -0.48727
 Alpha  occ. eigenvalues --   -0.47465  -0.46705  -0.46655  -0.44764  -0.44635
 Alpha  occ. eigenvalues --   -0.37263  -0.36319
 Alpha virt. eigenvalues --    0.05077   0.11308   0.16467   0.19637   0.22681
 Alpha virt. eigenvalues --    0.23054   0.24585   0.25467   0.27127   0.27852
 Alpha virt. eigenvalues --    0.29872   0.30447   0.30925   0.31295   0.31870

 Mulliken charges:
               1
     1  C   -0.172736
     2  C   -0.218877
     3  C   -0.171025
     4  C    0.158533
     5  C   -0.170825
     6  C   -0.220463
     7  H    0.230813
     8  H    0.224092
     9  H    0.275412
    10  H    0.275356
    11  H    0.222961
    12  N    0.488081
    13  O   -0.460619
    14  O   -0.460495
    15  C   -0.301981
    16  C   -0.299959
    17  C   -0.477056
    18  H    0.144540
    19  H    0.145671
    20  H    0.154040
    21  H    0.154632
    22  H    0.153075
    23  H    0.158414
    24  H    0.163889
    25  C   -0.298261
    26  C   -0.300822
    27  C   -0.475972
    28  H    0.152068
    29  H    0.153584
    30  H    0.145275
    31  H    0.151499
    32  H    0.158084
    33  H    0.157012
    34  H    0.162058
 Sum of Mulliken charges =  -0.00000

 Dipole moment (field-independent basis, Debye):
    X=              5.2208    Y=             -1.2501    Z=             -0.2785  Tot=              5.3756
 Quadrupole moment (field-independent basis, Debye-Ang):
   XX=           -127.2276   YY=            -93.8182   ZZ=            -89.9515
   XY=              3.7529   XZ=              2.0890   YZ=              2.3363

 Normal termination of Gaussian 16 at Thu May  6 09:34:13 2021.
