 Gaussian 16, Revision A.03,
 Gaussian 16:  EM64L-G16RevA.03 25-Dec-2016

 -------------
 #p 6-31g* mp2
 -------------

 ------------------------------------------------------
 Input file generated by CHIRIPA (05-May-2021 14:51:12)
 ------------------------------------------------------
 Symbolic Z-matrix:
 Charge =  0 Multiplicity = 1

                         Standard orientation:
 ---------------------------------------------------------------------
 Center     Atomic      Atomic             Coordinates (Angstroms)
 Number     Number       Type             X           Y           Z
 ---------------------------------------------------------------------
      1          6           0        3.848193    0.802950   -0.303800
      2          6           0        3.398290    2.037293    0.478485
      3          6           0        4.179010    3.295543    0.097596
      4          1           0        4.920340    0.637483   -0.130403
      5          1           0        3.731681    0.996402   -1.379159
      6          1           0        3.514314    1.841063    1.552099
      7          1           0        2.327047    2.199729    0.303358
      8          1           0        4.054166    3.518899   -0.966889
      9          1           0        5.248179    3.158195    0.288948
     10          1           0        3.841199    4.165896    0.668761
     11          6           0        3.076989   -0.462878    0.065864
     12          6           0        3.526892   -1.697220   -0.716421
     13          6           0        2.746171   -2.955470   -0.335532
     14          1           0        3.193500   -0.656329    1.141223
     15          1           0        2.004842   -0.297410   -0.107533
     16          1           0        4.598135   -1.859657   -0.541294
     17          1           0        3.410868   -1.500991   -1.790036
     18          1           0        1.677003   -2.818123   -0.526885
     19          1           0        2.871016   -3.178827    0.728952
     20          1           0        3.083983   -3.825823   -0.906697
     21          6           0       -4.223620   -0.147576    0.057636
     22          6           0       -4.758565    1.224488   -0.353774
     23          6           0       -6.282675    1.253520   -0.472272
     24          1           0       -4.550056   -0.896610   -0.676757
     25          1           0       -4.672565   -0.435422    1.018359
     26          1           0       -4.307687    1.510275   -1.312759
     27          1           0       -4.430657    1.970374    0.381581
     28          1           0       -6.748429    0.993566    0.483812
     29          1           0       -6.624761    0.530852   -1.220154
     30          1           0       -6.643619    2.243724   -0.767359
     31          6           0       -2.701561   -0.192496    0.180300
     32          6           0       -2.166617   -1.564562    0.591710
     33          6           0       -0.642507   -1.593593    0.710208
     34          1           0       -2.252617    0.095349   -0.780424
     35          1           0       -2.375125    0.556536    0.914693
     36          1           0       -2.494525   -2.310447   -0.143645
     37          1           0       -2.617494   -1.850347    1.550695
     38          1           0       -0.300421   -0.870924    1.458090
     39          1           0       -0.176753   -1.333639   -0.245876
     40          1           0       -0.281563   -2.583796    1.005294
 ---------------------------------------------------------------------

 SCF Done:  E(RHF) =  -470.731586944     A.U. after   11 cycles
 E2 =    -0.1583851351D+01 EUMP2 =    -0.47231543829494D+03

 The electronic state is 1-A.
 Alpha  occ. eigenvalues --  -11.21624 -11.21612 -11.21548 -11.21487 -11.21436
 Alpha  occ. eigenvalues --  -11.21376 -11.21300 -11.21200 -11.21089 -11.21073
 Alpha  occ. eigenvalues --  -11.21032 -11.20859  -1.08464  -1.08330  -1.03582
 Alpha  occ. eigenvalues --   -1.03421  -0.96034  -0.95870  -0.87070  -0.86885
 Alpha  occ. eigenvalues --   -0.79750  -0.79419  -0.78315  -0.78077  -0.65124
 Alpha  occ. eigenvalues --   -0.64955  -0.61078  -0.60755  -0.59439  -0.59228
 Alpha  occ. eigenvalues --   -0.57699  -0.57433  -0.55398  -0.55099  -0.52831
 Alpha  occ. eigenvalues --   -0.52616  -0.52486  -0.52142  -0.50062  -0.49749
 Alpha  occ. eigenvalues --   -0.48035  -0.47770  -0.46777  -0.46418  -0.45963
 Alpha  occ. eigenvalues --   -0.45750  -0.45642  -0.45286  -0.43762  -0.43678
 Alpha virt. eigenvalues --    0.22032   0.23048   0.23809   0.24732   0.26157
 Alpha virt. eigenvalues --    0.26561   0.27055   0.27362   0.28074   0.29631
 Alpha virt. eigenvalues --    0.30592   0.31386   0.31517   0.31914   0.32336

 Mulliken charges:
               1
     1  C   -0.297709
     2  C   -0.299589
     3  C   -0.475574
     4  H    0.149222
     5  H    0.148785
     6  H    0.151622
     7  H    0.151790
     8  H    0.155030
     9  H    0.155118
    10  H    0.159951
    11  C   -0.303897
    12  C   -0.299568
    13  C   -0.480945
    14  H    0.148691
    15  H    0.157488
    16  H    0.151221
    17  H    0.150458
    18  H    0.163591
    19  H    0.153850
    20  H    0.158487
    21  C   -0.298229
    22  C   -0.299656
    23  C   -0.475722
    24  H    0.149701
    25  H    0.149700
    26  H    0.151817
    27  H    0.151984
    28  H    0.155252
    29  H    0.155208
    30  H    0.160312
    31  C   -0.298617
    32  C   -0.300219
    33  C   -0.479198
    34  H    0.148983
    35  H    0.149733
    36  H    0.151839
    37  H    0.152013
    38  H    0.156897
    39  H    0.156237
    40  H    0.163944
 Sum of Mulliken charges =  -0.00000

 Dipole moment (field-independent basis, Debye):
    X=             -0.0745    Y=             -0.0104    Z=              0.0282  Tot=              0.0803
 Quadrupole moment (field-independent basis, Debye-Ang):
   XX=            -86.1119   YY=            -85.8135   ZZ=            -83.3156
   XY=             -0.3444   XZ=              0.4229   YZ=              0.2502

 Normal termination of Gaussian 16 at Thu May  6 03:55:50 2021.
