 Gaussian 16, Revision A.03,
 Gaussian 16:  EM64L-G16RevA.03 25-Dec-2016

 -------------
 #p 6-31g* mp2
 -------------

 ------------------------------------------------------
 Input file generated by CHIRIPA (05-May-2021 14:53:16)
 ------------------------------------------------------
 Symbolic Z-matrix:
 Charge =  0 Multiplicity = 1

                         Standard orientation:
 ---------------------------------------------------------------------
 Center     Atomic      Atomic             Coordinates (Angstroms)
 Number     Number       Type             X           Y           Z
 ---------------------------------------------------------------------
      1          6           0       -3.956893    0.096637    0.237974
      2          6           0       -3.291640   -1.166512    0.785585
      3          6           0       -1.795812   -0.982553    1.043365
      4          1           0       -3.456357    0.392295   -0.694225
      5          1           0       -3.805020    0.920384    0.949149
      6          1           0       -3.445913   -1.987975    0.074237
      7          1           0       -3.793943   -1.459307    1.716487
      8          1           0       -1.625774   -0.181474    1.769974
      9          1           0       -1.275766   -0.713146    0.118393
     10          1           0       -1.340310   -1.897651    1.434482
     11          6           0       -5.452349   -0.071548   -0.024806
     12          6           0       -6.117602    1.191602   -0.572417
     13          6           0       -7.613431    1.007642   -0.830197
     14          1           0       -5.604223   -0.895294   -0.735981
     15          1           0       -5.952886   -0.367206    0.907393
     16          1           0       -5.615300    1.484396   -1.503320
     17          1           0       -5.963330    2.013064    0.138930
     18          1           0       -8.133477    0.738235    0.094775
     19          1           0       -7.783469    0.206563   -1.556806
     20          1           0       -8.068933    1.922740   -1.221314
     21          6           0        5.281274    1.932191    0.043353
     22          6           0        4.119165    1.932900    0.821828
     23          6           0        3.222322    0.862217    0.759731
     24          6           0        3.520244   -0.197545   -0.095509
     25          6           0        4.669724   -0.227460   -0.883603
     26          6           0        5.552366    0.853915   -0.805382
     27          1           0        5.972449    2.768076    0.097855
     28          1           0        3.906059    2.768957    1.481857
     29          1           0        2.315281    0.836992    1.351389
     30          1           0        4.855040   -1.075065   -1.532171
     31          1           0        6.454103    0.850664   -1.411109
     32          7           0        2.578312   -1.336688   -0.169784
     33          8           0        2.863678   -2.258366   -0.931172
     34          8           0        1.572495   -1.286300    0.534794
 ---------------------------------------------------------------------

 SCF Done:  E(RHF) =  -669.535548366     A.U. after   15 cycles
 E2 =    -0.2090891098D+01 EUMP2 =    -0.67162643946399D+03

 The electronic state is 1-A.
 Alpha  occ. eigenvalues --  -20.60838 -20.60826 -15.85870 -11.31229 -11.27799
 Alpha  occ. eigenvalues --  -11.27791 -11.27543 -11.26814 -11.26804 -11.21183
 Alpha  occ. eigenvalues --  -11.20828 -11.20725 -11.20677 -11.20575 -11.19614
 Alpha  occ. eigenvalues --   -1.59904  -1.39458  -1.19403  -1.08801  -1.07761
 Alpha  occ. eigenvalues --   -1.04804  -1.02765  -0.95644  -0.95176  -0.86217
 Alpha  occ. eigenvalues --   -0.86177  -0.82467  -0.78855  -0.77587  -0.77475
 Alpha  occ. eigenvalues --   -0.72089  -0.71224  -0.70511  -0.65057  -0.64807
 Alpha  occ. eigenvalues --   -0.64402  -0.62150  -0.60169  -0.58604  -0.56791
 Alpha  occ. eigenvalues --   -0.55308  -0.54482  -0.53135  -0.52896  -0.51820
 Alpha  occ. eigenvalues --   -0.51617  -0.49187  -0.48853  -0.48807  -0.47159
 Alpha  occ. eigenvalues --   -0.45929  -0.45133  -0.45038  -0.44742  -0.42994
 Alpha  occ. eigenvalues --   -0.37385  -0.36407
 Alpha virt. eigenvalues --    0.04997   0.11247   0.16476   0.21349   0.23477
 Alpha virt. eigenvalues --    0.25080   0.27177   0.27310   0.27904   0.28166
 Alpha virt. eigenvalues --    0.29020   0.30923   0.32057   0.32252   0.32686

 Mulliken charges:
               1
     1  C   -0.297169
     2  C   -0.302122
     3  C   -0.468123
     4  H    0.148433
     5  H    0.145892
     6  H    0.151600
     7  H    0.147348
     8  H    0.143423
     9  H    0.161719
    10  H    0.170264
    11  C   -0.297501
    12  C   -0.298962
    13  C   -0.475299
    14  H    0.149485
    15  H    0.148489
    16  H    0.151088
    17  H    0.150235
    18  H    0.154591
    19  H    0.155110
    20  H    0.158497
    21  C   -0.170733
    22  C   -0.218567
    23  C   -0.170946
    24  C    0.157594
    25  C   -0.170827
    26  C   -0.218599
    27  H    0.225735
    28  H    0.223654
    29  H    0.276406
    30  H    0.275662
    31  H    0.223549
    32  N    0.491699
    33  O   -0.460254
    34  O   -0.461372
 Sum of Mulliken charges =  -0.00000

 Dipole moment (field-independent basis, Debye):
    X=              3.5930    Y=              3.9240    Z=              0.2471  Tot=              5.3262
 Quadrupole moment (field-independent basis, Debye-Ang):
   XX=            -72.4292   YY=            -95.7684   ZZ=            -92.3047
   XY=             12.4007   XZ=             -2.0774   YZ=              1.6195

 Normal termination of Gaussian 16 at Thu May  6 04:20:22 2021.
