 Gaussian 16, Revision A.03,
 Gaussian 16:  EM64L-G16RevA.03 25-Dec-2016

 -------------
 #p 6-31g* mp2
 -------------

 ------------------------------------------------------
 Input file generated by CHIRIPA (05-May-2021 14:53:17)
 ------------------------------------------------------
 Symbolic Z-matrix:
 Charge =  0 Multiplicity = 1

                         Standard orientation:
 ---------------------------------------------------------------------
 Center     Atomic      Atomic             Coordinates (Angstroms)
 Number     Number       Type             X           Y           Z
 ---------------------------------------------------------------------
      1          6           0        3.958086   -0.083162    0.474535
      2          6           0        4.982262    0.580436   -0.446706
      3          6           0        5.905255    1.547754    0.295031
      4          1           0        3.357760    0.694888    0.965648
      5          1           0        4.487732   -0.620206    1.273568
      6          1           0        4.450871    1.114918   -1.244559
      7          1           0        5.580092   -0.199291   -0.935829
      8          1           0        6.461119    1.024529    1.079793
      9          1           0        5.325482    2.346205    0.769309
     10          1           0        6.629425    2.010837   -0.382458
     11          6           0        3.028146   -1.052970   -0.252385
     12          6           0        2.003969   -1.716568    0.668856
     13          6           0        1.080977   -2.683886   -0.072881
     14          1           0        2.498500   -0.515926   -1.051419
     15          1           0        3.628471   -1.831020   -0.743498
     16          1           0        1.406139   -0.936841    1.157979
     17          1           0        2.535360   -2.251050    1.466708
     18          1           0        1.660750   -3.482337   -0.547159
     19          1           0        0.525113   -2.160661   -0.857643
     20          1           0        0.356806   -3.146969    0.604608
     21          6           0       -1.813524    2.793318   -0.173996
     22          6           0       -3.032522    2.540250    0.463597
     23          6           0       -3.549333    1.242370    0.518002
     24          6           0       -2.817501    0.216660   -0.078345
     25          6           0       -1.600189    0.436908   -0.720945
     26          6           0       -1.102503    1.742691   -0.763192
     27          1           0       -1.419480    3.804612   -0.211537
     28          1           0       -3.586876    3.354232    0.922037
     29          1           0       -4.490574    1.018315    1.005119
     30          1           0       -1.070410   -0.395030   -1.168862
     31          1           0       -0.155555    1.936278   -1.259036
     32          7           0       -3.354504   -1.161532   -0.027184
     33          8           0       -2.690486   -2.047861   -0.560231
     34          8           0       -4.429256   -1.329333    0.544994
 ---------------------------------------------------------------------

 SCF Done:  E(RHF) =  -669.535382369     A.U. after   15 cycles
 E2 =    -0.2091935242D+01 EUMP2 =    -0.67162731761187D+03

 The electronic state is 1-A.
 Alpha  occ. eigenvalues --  -20.60794 -20.60785 -15.85838 -11.31218 -11.27791
 Alpha  occ. eigenvalues --  -11.27782 -11.27539 -11.26816 -11.26805 -11.21944
 Alpha  occ. eigenvalues --  -11.21708 -11.21660 -11.21612 -11.21395 -11.20831
 Alpha  occ. eigenvalues --   -1.59863  -1.39416  -1.19396  -1.08787  -1.08675
 Alpha  occ. eigenvalues --   -1.04803  -1.03691  -0.96122  -0.95617  -0.87126
 Alpha  occ. eigenvalues --   -0.86198  -0.82451  -0.79751  -0.78490  -0.77495
 Alpha  occ. eigenvalues --   -0.72059  -0.71184  -0.70513  -0.65338  -0.65048
 Alpha  occ. eigenvalues --   -0.64811  -0.62206  -0.61055  -0.59486  -0.57722
 Alpha  occ. eigenvalues --   -0.55494  -0.55247  -0.53125  -0.52916  -0.52747
 Alpha  occ. eigenvalues --   -0.52510  -0.50077  -0.48819  -0.48807  -0.48053
 Alpha  occ. eigenvalues --   -0.46808  -0.46016  -0.45972  -0.44814  -0.43928
 Alpha  occ. eigenvalues --   -0.37376  -0.36400
 Alpha virt. eigenvalues --    0.05011   0.11219   0.16490   0.19797   0.22857
 Alpha virt. eigenvalues --    0.23793   0.25714   0.26671   0.27054   0.28186
 Alpha virt. eigenvalues --    0.29293   0.30541   0.31438   0.31616   0.31903

 Mulliken charges:
               1
     1  C   -0.298152
     2  C   -0.299056
     3  C   -0.475571
     4  H    0.147071
     5  H    0.151955
     6  H    0.147937
     7  H    0.153854
     8  H    0.156841
     9  H    0.153491
    10  H    0.160693
    11  C   -0.295968
    12  C   -0.303485
    13  C   -0.475523
    14  H    0.139394
    15  H    0.152365
    16  H    0.149982
    17  H    0.153669
    18  H    0.155245
    19  H    0.151509
    20  H    0.172680
    21  C   -0.170557
    22  C   -0.218752
    23  C   -0.170234
    24  C    0.156141
    25  C   -0.173472
    26  C   -0.221933
    27  H    0.225750
    28  H    0.223609
    29  H    0.275774
    30  H    0.284473
    31  H    0.223856
    32  N    0.487366
    33  O   -0.460678
    34  O   -0.460275
 Sum of Mulliken charges =  -0.00000

 Dipole moment (field-independent basis, Debye):
    X=              1.8641    Y=              4.7254    Z=             -0.1094  Tot=              5.0810
 Quadrupole moment (field-independent basis, Debye-Ang):
   XX=           -102.5244   YY=            -92.1224   ZZ=            -94.3062
   XY=            -16.1145   XZ=             -2.0590   YZ=              0.0394

 Normal termination of Gaussian 16 at Thu May  6 04:22:31 2021.
