 Gaussian 16, Revision A.03,
 Gaussian 16:  EM64L-G16RevA.03 25-Dec-2016

 -------------
 #p 6-31g* mp2
 -------------

 ------------------------------------------------------
 Input file generated by CHIRIPA (05-May-2021 14:53:13)
 ------------------------------------------------------
 Symbolic Z-matrix:
 Charge =  0 Multiplicity = 1

                         Standard orientation:
 ---------------------------------------------------------------------
 Center     Atomic      Atomic             Coordinates (Angstroms)
 Number     Number       Type             X           Y           Z
 ---------------------------------------------------------------------
      1          6           0       -2.769391    0.097874    0.244240
      2          6           0       -3.522269   -0.922743   -0.609868
      3          6           0       -3.759003   -2.244974    0.120512
      4          1           0       -1.805587   -0.330524    0.551651
      5          1           0       -3.337149    0.283866    1.166440
      6          1           0       -2.953947   -1.105716   -1.530817
      7          1           0       -4.484310   -0.491793   -0.915442
      8          1           0       -4.345855   -2.082769    1.030400
      9          1           0       -2.806796   -2.700180    0.411528
     10          1           0       -4.298680   -2.959946   -0.508315
     11          6           0       -2.525142    1.424835   -0.472171
     12          6           0       -1.772264    2.445452    0.381937
     13          6           0       -1.535530    3.767683   -0.348443
     14          1           0       -1.957384    1.238843   -1.394371
     15          1           0       -3.488946    1.853233   -0.779583
     16          1           0       -0.810223    2.014502    0.687511
     17          1           0       -2.340586    2.628425    1.302886
     18          1           0       -2.487737    4.222889   -0.639459
     19          1           0       -0.948679    3.605478   -1.258331
     20          1           0       -0.995853    4.482654    0.280384
     21          6           0        0.530026   -2.589920    0.228844
     22          6           0        0.549379   -1.647199    1.262006
     23          6           0        1.397609   -0.537881    1.195163
     24          6           0        2.216879   -0.401928    0.075519
     25          6           0        2.220463   -1.323992   -0.969983
     26          6           0        1.364160   -2.425597   -0.881894
     27          1           0       -0.132034   -3.448669    0.289021
     28          1           0       -0.097329   -1.772246    2.125822
     29          1           0        1.432765    0.207111    1.980763
     30          1           0        2.876630   -1.172281   -1.818420
     31          1           0        1.351245   -3.156137   -1.685754
     32          7           0        3.119136    0.768374   -0.006490
     33          8           0        3.831210    0.865303   -1.003582
     34          8           0        3.097166    1.566569    0.927876
 ---------------------------------------------------------------------

 SCF Done:  E(RHF) =  -669.534971257     A.U. after   15 cycles
 E2 =    -0.2094294898D+01 EUMP2 =    -0.67162926615533D+03

 The electronic state is 1-A.
 Alpha  occ. eigenvalues --  -20.60881 -20.60875 -15.85934 -11.31349 -11.27899
 Alpha  occ. eigenvalues --  -11.27892 -11.27635 -11.26927 -11.26911 -11.22048
 Alpha  occ. eigenvalues --  -11.21815 -11.21606 -11.21580 -11.21472 -11.20893
 Alpha  occ. eigenvalues --   -1.59954  -1.39506  -1.19522  -1.08913  -1.08643
 Alpha  occ. eigenvalues --   -1.04927  -1.03768  -0.96220  -0.95728  -0.87243
 Alpha  occ. eigenvalues --   -0.86317  -0.82558  -0.79850  -0.78461  -0.77590
 Alpha  occ. eigenvalues --   -0.72149  -0.71278  -0.70612  -0.65329  -0.65163
 Alpha  occ. eigenvalues --   -0.64896  -0.62257  -0.61174  -0.59615  -0.57822
 Alpha  occ. eigenvalues --   -0.55647  -0.55306  -0.53297  -0.53008  -0.52901
 Alpha  occ. eigenvalues --   -0.52641  -0.50179  -0.48912  -0.48902  -0.48164
 Alpha  occ. eigenvalues --   -0.46889  -0.45995  -0.45896  -0.44893  -0.43988
 Alpha  occ. eigenvalues --   -0.37454  -0.36430
 Alpha virt. eigenvalues --    0.04885   0.10966   0.16288   0.20035   0.22946
 Alpha virt. eigenvalues --    0.23843   0.25887   0.26512   0.26778   0.28395
 Alpha virt. eigenvalues --    0.28665   0.30307   0.31206   0.31457   0.31982

 Mulliken charges:
               1
     1  C   -0.308041
     2  C   -0.298423
     3  C   -0.475800
     4  H    0.156638
     5  H    0.146730
     6  H    0.151845
     7  H    0.154219
     8  H    0.157050
     9  H    0.142947
    10  H    0.161685
    11  C   -0.297219
    12  C   -0.301841
    13  C   -0.475563
    14  H    0.150417
    15  H    0.149573
    16  H    0.152242
    17  H    0.150103
    18  H    0.153587
    19  H    0.157495
    20  H    0.164416
    21  C   -0.170570
    22  C   -0.221239
    23  C   -0.170423
    24  C    0.158682
    25  C   -0.171018
    26  C   -0.218478
    27  H    0.228120
    28  H    0.226843
    29  H    0.276969
    30  H    0.276187
    31  H    0.224462
    32  N    0.488168
    33  O   -0.459799
    34  O   -0.459964
 Sum of Mulliken charges =  -0.00000

 Dipole moment (field-independent basis, Debye):
    X=             -3.0506    Y=             -4.0712    Z=              0.2552  Tot=              5.0937
 Quadrupole moment (field-independent basis, Debye-Ang):
   XX=           -108.4530   YY=            -92.2698   ZZ=            -90.9442
   XY=             -9.2105   XZ=             -1.4379   YZ=              1.7433

 Normal termination of Gaussian 16 at Wed May  5 18:33:44 2021.
