 Gaussian 16, Revision A.03,
 Gaussian 16:  EM64L-G16RevA.03 25-Dec-2016

 -------------
 #p 6-31g* mp2
 -------------

 ------------------------------------------------------
 Input file generated by CHIRIPA (05-May-2021 14:55:20)
 ------------------------------------------------------
 Symbolic Z-matrix:
 Charge =  0 Multiplicity = 1

                         Standard orientation:
 ---------------------------------------------------------------------
 Center     Atomic      Atomic             Coordinates (Angstroms)
 Number     Number       Type             X           Y           Z
 ---------------------------------------------------------------------
      1          6           0        3.760312    1.795374    0.363707
      2          6           0        4.385991    0.559600    0.169004
      3          6           0        3.627004   -0.593557   -0.051712
      4          6           0        2.238258   -0.474042   -0.071488
      5          6           0        1.585511    0.742863    0.119177
      6          6           0        2.364529    1.882907    0.338217
      7          1           0        4.357692    2.686080    0.534513
      8          1           0        5.469798    0.488632    0.188280
      9          1           0        4.085471   -1.562894   -0.205375
     10          1           0        0.503260    0.782125    0.094485
     11          1           0        1.875902    2.841300    0.489118
     12          7           0        1.424149   -1.687896   -0.304263
     13          8           0        0.202231   -1.556024   -0.317061
     14          8           0        2.023383   -2.748203   -0.469506
     15          6           0       -3.023951    0.967746   -0.407626
     16          6           0       -2.670817    2.254998    0.338206
     17          6           0       -2.649304    3.480716   -0.575547
     18          1           0       -2.298850    0.810220   -1.217786
     19          1           0       -4.006006    1.086975   -0.885902
     20          1           0       -1.690339    2.132879    0.816082
     21          1           0       -3.396731    2.409376    1.146805
     22          1           0       -3.628272    3.630563   -1.042205
     23          1           0       -1.912185    3.352496   -1.374807
     24          1           0       -2.394685    4.389812   -0.021854
     25          6           0       -3.049477   -0.266347    0.492423
     26          6           0       -3.402611   -1.553598   -0.253409
     27          6           0       -3.424123   -2.779317    0.660344
     28          1           0       -2.067422   -0.385576    0.970699
     29          1           0       -3.774578   -0.108822    1.302583
     30          1           0       -2.676697   -1.707976   -1.062008
     31          1           0       -4.383088   -1.431480   -0.731286
     32          1           0       -4.161243   -2.651096    1.459604
     33          1           0       -2.445156   -2.929164    1.127002
     34          1           0       -3.678743   -3.688412    0.106652
 ---------------------------------------------------------------------

 SCF Done:  E(RHF) =  -669.536169412     A.U. after   15 cycles
 E2 =    -0.2093173075D+01 EUMP2 =    -0.67162934248733D+03

 The electronic state is 1-A.
 Alpha  occ. eigenvalues --  -20.61049 -20.61032 -15.86068 -11.31331 -11.27888
 Alpha  occ. eigenvalues --  -11.27878 -11.27614 -11.26885 -11.26870 -11.21725
 Alpha  occ. eigenvalues --  -11.21284 -11.20992 -11.20497 -11.20351 -11.19795
 Alpha  occ. eigenvalues --   -1.60100  -1.39659  -1.19495  -1.08910  -1.07887
 Alpha  occ. eigenvalues --   -1.04882  -1.02935  -0.95762  -0.95407  -0.86444
 Alpha  occ. eigenvalues --   -0.86284  -0.82601  -0.79142  -0.77691  -0.77505
 Alpha  occ. eigenvalues --   -0.72322  -0.71407  -0.70610  -0.65176  -0.64929
 Alpha  occ. eigenvalues --   -0.64459  -0.62213  -0.60278  -0.58907  -0.56982
 Alpha  occ. eigenvalues --   -0.55389  -0.54693  -0.53217  -0.52969  -0.52174
 Alpha  occ. eigenvalues --   -0.51820  -0.49456  -0.49036  -0.48967  -0.47414
 Alpha  occ. eigenvalues --   -0.46200  -0.45305  -0.45079  -0.44646  -0.43183
 Alpha  occ. eigenvalues --   -0.37471  -0.36480
 Alpha virt. eigenvalues --    0.04830   0.11161   0.16330   0.19039   0.23018
 Alpha virt. eigenvalues --    0.24773   0.26038   0.27482   0.27856   0.28371
 Alpha virt. eigenvalues --    0.29637   0.31270   0.31860   0.32031   0.32768

 Mulliken charges:
               1
     1  C   -0.170169
     2  C   -0.218957
     3  C   -0.169781
     4  C    0.157155
     5  C   -0.178240
     6  C   -0.221069
     7  H    0.226286
     8  H    0.223995
     9  H    0.275831
    10  H    0.286240
    11  H    0.224961
    12  N    0.493906
    13  O   -0.467520
    14  O   -0.457933
    15  C   -0.301142
    16  C   -0.300095
    17  C   -0.475671
    18  H    0.151782
    19  H    0.149557
    20  H    0.138729
    21  H    0.154906
    22  H    0.158925
    23  H    0.152029
    24  H    0.156847
    25  C   -0.300036
    26  C   -0.298816
    27  C   -0.477212
    28  H    0.159092
    29  H    0.143398
    30  H    0.168400
    31  H    0.143298
    32  H    0.146554
    33  H    0.166981
    34  H    0.157769
 Sum of Mulliken charges =  -0.00000

 Dipole moment (field-independent basis, Debye):
    X=              3.0867    Y=              4.0926    Z=              0.7454  Tot=              5.1800
 Quadrupole moment (field-independent basis, Debye-Ang):
   XX=            -78.1070   YY=            -98.8356   ZZ=            -96.0865
   XY=              5.5158   XZ=              1.4430   YZ=              0.1722

 Normal termination of Gaussian 16 at Thu May  6 15:47:22 2021.
