 Gaussian 16, Revision A.03,
 Gaussian 16:  EM64L-G16RevA.03 25-Dec-2016

 -------------
 #p 6-31g* mp2
 -------------

 ------------------------------------------------------
 Input file generated by CHIRIPA (05-May-2021 14:55:22)
 ------------------------------------------------------
 Symbolic Z-matrix:
 Charge =  0 Multiplicity = 1

                         Standard orientation:
 ---------------------------------------------------------------------
 Center     Atomic      Atomic             Coordinates (Angstroms)
 Number     Number       Type             X           Y           Z
 ---------------------------------------------------------------------
      1          6           0       -2.025969   -2.651324    0.338425
      2          6           0       -3.368158   -2.275979    0.219411
      3          6           0       -3.716212   -0.935698    0.026917
      4          6           0       -2.691837    0.007264   -0.042126
      5          6           0       -1.345477   -0.335350    0.072849
      6          6           0       -1.020684   -1.681521    0.264893
      7          1           0       -1.764627   -3.694774    0.487784
      8          1           0       -4.150983   -3.026987    0.276127
      9          1           0       -4.747258   -0.617455   -0.068396
     10          1           0       -0.587324    0.435976    0.012201
     11          1           0        0.022520   -1.970120    0.356987
     12          7           0       -3.047993    1.429277   -0.245673
     13          8           0       -2.126770    2.240877   -0.303028
     14          8           0       -4.241629    1.705325   -0.344003
     15          6           0        3.813282   -0.254272   -0.289552
     16          6           0        3.397669   -1.667665    0.119802
     17          6           0        4.293142   -2.746937   -0.489371
     18          1           0        3.791580   -0.175378   -1.385111
     19          1           0        4.854898   -0.083029    0.015585
     20          1           0        2.356705   -1.835702   -0.184783
     21          1           0        3.420178   -1.743147    1.214522
     22          1           0        5.332667   -2.607346   -0.175521
     23          1           0        4.263151   -2.700427   -1.582778
     24          1           0        3.978183   -3.749543   -0.183686
     25          6           0        2.927551    0.835649    0.311514
     26          6           0        3.343165    2.249042   -0.097841
     27          6           0        2.447692    3.328316    0.511332
     28          1           0        1.885936    0.664407    0.006377
     29          1           0        2.949254    0.756755    1.407073
     30          1           0        3.320655    2.324524   -1.192561
     31          1           0        4.384129    2.417080    0.206746
     32          1           0        2.477683    3.281805    1.604740
     33          1           0        1.408166    3.188723    0.197483
     34          1           0        2.762650    4.330922    0.205647
 ---------------------------------------------------------------------

 SCF Done:  E(RHF) =  -669.535469979     A.U. after   15 cycles
 E2 =    -0.2092474052D+01 EUMP2 =    -0.67162794403192D+03

 The electronic state is 1-A.
 Alpha  occ. eigenvalues --  -20.60767 -20.60761 -15.85815 -11.31145 -11.27716
 Alpha  occ. eigenvalues --  -11.27694 -11.27449 -11.26729 -11.26675 -11.22494
 Alpha  occ. eigenvalues --  -11.22001 -11.21940 -11.21771 -11.21757 -11.20892
 Alpha  occ. eigenvalues --   -1.59837  -1.39392  -1.19315  -1.08977  -1.08716
 Alpha  occ. eigenvalues --   -1.04714  -1.03963  -0.96372  -0.95558  -0.87392
 Alpha  occ. eigenvalues --   -0.86116  -0.82396  -0.80078  -0.78799  -0.77430
 Alpha  occ. eigenvalues --   -0.72035  -0.71157  -0.70435  -0.65631  -0.64965
 Alpha  occ. eigenvalues --   -0.64741  -0.62064  -0.61345  -0.59801  -0.57991
 Alpha  occ. eigenvalues --   -0.55640  -0.55223  -0.53078  -0.53045  -0.52931
 Alpha  occ. eigenvalues --   -0.52669  -0.50307  -0.48796  -0.48787  -0.48336
 Alpha  occ. eigenvalues --   -0.47105  -0.46292  -0.46200  -0.44804  -0.44238
 Alpha  occ. eigenvalues --   -0.37298  -0.36314
 Alpha virt. eigenvalues --    0.05087   0.11327   0.16568   0.18976   0.22853
 Alpha virt. eigenvalues --    0.22993   0.24544   0.26415   0.27244   0.27654
 Alpha virt. eigenvalues --    0.29156   0.31192   0.31293   0.31505   0.32326

 Mulliken charges:
               1
     1  C   -0.172225
     2  C   -0.218865
     3  C   -0.170419
     4  C    0.160275
     5  C   -0.182867
     6  C   -0.228690
     7  H    0.226037
     8  H    0.223239
     9  H    0.275382
    10  H    0.284765
    11  H    0.234961
    12  N    0.488157
    13  O   -0.461588
    14  O   -0.460226
    15  C   -0.297720
    16  C   -0.306485
    17  C   -0.475173
    18  H    0.152480
    19  H    0.153515
    20  H    0.144870
    21  H    0.153444
    22  H    0.159032
    23  H    0.157688
    24  H    0.158905
    25  C   -0.303207
    26  C   -0.299870
    27  C   -0.480666
    28  H    0.143285
    29  H    0.151329
    30  H    0.153954
    31  H    0.152482
    32  H    0.154126
    33  H    0.167446
    34  H    0.162630
 Sum of Mulliken charges =  -0.00000

 Dipole moment (field-independent basis, Debye):
    X=              1.4234    Y=             -4.8935    Z=              0.7021  Tot=              5.1445
 Quadrupole moment (field-independent basis, Debye-Ang):
   XX=            -95.9777   YY=            -95.4992   ZZ=            -95.1727
   XY=             15.6256   XZ=             -1.2948   YZ=             -0.0665

 Normal termination of Gaussian 16 at Thu May  6 12:31:57 2021.
