 Gaussian 16, Revision A.03,
 Gaussian 16:  EM64L-G16RevA.03 25-Dec-2016

 -------------
 #p 6-31g* mp2
 -------------

 ------------------------------------------------------
 Input file generated by CHIRIPA (05-May-2021 14:51:09)
 ------------------------------------------------------
 Symbolic Z-matrix:
 Charge =  0 Multiplicity = 1

                         Standard orientation:
 ---------------------------------------------------------------------
 Center     Atomic      Atomic             Coordinates (Angstroms)
 Number     Number       Type             X           Y           Z
 ---------------------------------------------------------------------
      1          6           0        2.740435    0.227908   -0.172911
      2          6           0        2.827956    1.748682   -0.305471
      3          6           0        3.677564    2.190249   -1.497519
      4          1           0        3.754123   -0.184204   -0.075214
      5          1           0        2.320856   -0.190292   -1.098361
      6          1           0        3.245958    2.164009    0.620485
      7          1           0        1.813930    2.157238   -0.402671
      8          1           0        3.259841    1.803429   -2.432655
      9          1           0        4.700006    1.810238   -1.403686
     10          1           0        3.726651    3.280976   -1.573439
     11          6           0        1.894434   -0.229038    1.014190
     12          6           0        1.806913   -1.749812    1.146750
     13          6           0        0.957305   -2.191379    2.338798
     14          1           0        2.314013    0.189162    1.939640
     15          1           0        0.880746    0.183074    0.916493
     16          1           0        2.820939   -2.158368    1.243950
     17          1           0        1.388911   -2.165139    0.220794
     18          1           0       -0.065137   -1.811368    2.244965
     19          1           0        1.375028   -1.804559    3.273934
     20          1           0        0.908219   -3.282106    2.414718
     21          6           0       -2.409506   -0.562000   -0.929044
     22          6           0       -1.181952   -1.463474   -1.064847
     23          6           0       -1.381539   -2.584169   -2.085631
     24          1           0       -3.275302   -1.173349   -0.639920
     25          1           0       -2.647148   -0.127679   -1.910006
     26          1           0       -0.945865   -1.894877   -0.083638
     27          1           0       -0.318934   -0.849878   -1.353494
     28          1           0       -1.594644   -2.169526   -3.076217
     29          1           0       -2.225136   -3.220462   -1.799145
     30          1           0       -0.491882   -3.216461   -2.166736
     31          6           0       -2.225363    0.563130    0.087766
     32          6           0       -3.452917    1.464604    0.223567
     33          6           0       -3.253330    2.585299    1.244352
     34          1           0       -1.987720    0.128809    1.068727
     35          1           0       -1.359567    1.174479   -0.201359
     36          1           0       -4.315934    0.851009    0.512215
     37          1           0       -3.689003    1.896007   -0.757641
     38          1           0       -2.409733    3.221592    0.957866
     39          1           0       -3.040225    2.170656    2.234937
     40          1           0       -4.142987    3.217592    1.325458
 ---------------------------------------------------------------------

 SCF Done:  E(RHF) =  -470.731576402     A.U. after   11 cycles
 E2 =    -0.1586328993D+01 EUMP2 =    -0.47231790539500D+03

 The electronic state is 1-A.
 Alpha  occ. eigenvalues --  -11.21674 -11.21630 -11.21601 -11.21507 -11.21459
 Alpha  occ. eigenvalues --  -11.21435 -11.21346 -11.21222 -11.21143 -11.21116
 Alpha  occ. eigenvalues --  -11.21076 -11.21056  -1.08573  -1.08331  -1.03652
 Alpha  occ. eigenvalues --   -1.03454  -0.96062  -0.95949  -0.87071  -0.86967
 Alpha  occ. eigenvalues --   -0.79738  -0.79525  -0.78409  -0.78156  -0.65176
 Alpha  occ. eigenvalues --   -0.65032  -0.61206  -0.60794  -0.59372  -0.59301
 Alpha  occ. eigenvalues --   -0.57676  -0.57560  -0.55364  -0.55239  -0.52741
 Alpha  occ. eigenvalues --   -0.52649  -0.52485  -0.52372  -0.49993  -0.49910
 Alpha  occ. eigenvalues --   -0.48091  -0.47846  -0.46755  -0.46503  -0.46283
 Alpha  occ. eigenvalues --   -0.45754  -0.45597  -0.45218  -0.43857  -0.43729
 Alpha virt. eigenvalues --    0.20032   0.22319   0.22936   0.23923   0.25303
 Alpha virt. eigenvalues --    0.25887   0.26473   0.28178   0.28720   0.30426
 Alpha virt. eigenvalues --    0.30751   0.31186   0.31302   0.31805   0.32392

 Mulliken charges:
               1
     1  C   -0.300630
     2  C   -0.300162
     3  C   -0.475623
     4  H    0.149747
     5  H    0.150348
     6  H    0.152332
     7  H    0.151167
     8  H    0.154794
     9  H    0.155416
    10  H    0.160149
    11  C   -0.305125
    12  C   -0.304341
    13  C   -0.479535
    14  H    0.149061
    15  H    0.158744
    16  H    0.151758
    17  H    0.158201
    18  H    0.155832
    19  H    0.155748
    20  H    0.159904
    21  C   -0.297065
    22  C   -0.310990
    23  C   -0.476752
    24  H    0.149872
    25  H    0.149484
    26  H    0.161013
    27  H    0.155362
    28  H    0.155440
    29  H    0.155698
    30  H    0.160567
    31  C   -0.303679
    32  C   -0.299423
    33  C   -0.475871
    34  H    0.151406
    35  H    0.151124
    36  H    0.152342
    37  H    0.152267
    38  H    0.155289
    39  H    0.155557
    40  H    0.160571
 Sum of Mulliken charges =  -0.00000

 Dipole moment (field-independent basis, Debye):
    X=             -0.0534    Y=             -0.0027    Z=             -0.0071  Tot=              0.0540
 Quadrupole moment (field-independent basis, Debye-Ang):
   XX=            -84.3260   YY=            -85.3924   ZZ=            -85.1320
   XY=             -0.0292   XZ=              0.6662   YZ=             -0.6080

 Normal termination of Gaussian 16 at Thu May  6 05:19:33 2021.
