 Gaussian 16, Revision A.03,
 Gaussian 16:  EM64L-G16RevA.03 25-Dec-2016

 -------------
 #p 6-31g* mp2
 -------------

 ------------------------------------------------------
 Input file generated by CHIRIPA (05-May-2021 14:51:10)
 ------------------------------------------------------
 Symbolic Z-matrix:
 Charge =  0 Multiplicity = 1

                         Standard orientation:
 ---------------------------------------------------------------------
 Center     Atomic      Atomic             Coordinates (Angstroms)
 Number     Number       Type             X           Y           Z
 ---------------------------------------------------------------------
      1          6           0        2.648162    0.309378   -0.055899
      2          6           0        4.114918    0.536920   -0.423102
      3          6           0        4.353301    1.889998   -1.094032
      4          1           0        2.033785    0.383451   -0.963643
      5          1           0        2.315672    1.115098    0.613175
      6          1           0        4.444936   -0.269748   -1.090178
      7          1           0        4.725896    0.462106    0.485592
      8          1           0        4.050978    2.707238   -0.431220
      9          1           0        3.768422    1.971225   -2.015943
     10          1           0        5.408399    2.031825   -1.348027
     11          6           0        2.393924   -1.038987    0.615669
     12          6           0        0.927169   -1.266529    0.982871
     13          6           0        0.688785   -2.619607    1.653802
     14          1           0        2.726415   -1.844707   -0.053405
     15          1           0        3.008301   -1.113060    1.523413
     16          1           0        0.316190   -1.191715    0.074178
     17          1           0        0.597150   -0.459861    1.649948
     18          1           0        1.273664   -2.700834    2.575712
     19          1           0        0.991108   -3.436847    0.990989
     20          1           0       -0.366313   -2.761434    1.907796
     21          6           0       -2.439866    1.118245   -0.375645
     22          6           0       -2.745441    1.926245    0.885998
     23          6           0       -2.578603    3.431882    0.678590
     24          1           0       -1.412955    1.333377   -0.701402
     25          1           0       -3.101609    1.453179   -1.186392
     26          1           0       -2.084264    1.588932    1.694504
     27          1           0       -3.771678    1.709019    1.208898
     28          1           0       -3.249465    3.788864   -0.109513
     29          1           0       -1.552464    3.668096    0.378852
     30          1           0       -2.802010    3.990290    1.592992
     31          6           0       -2.602221   -0.388635   -0.184124
     32          6           0       -2.296646   -1.196636   -1.445768
     33          6           0       -2.463484   -2.702272   -1.238360
     34          1           0       -1.940476   -0.723570    0.626622
     35          1           0       -3.629131   -0.603768    0.141633
     36          1           0       -1.270407   -0.979409   -1.768667
     37          1           0       -2.957822   -0.859322   -2.254273
     38          1           0       -3.489623   -2.938487   -0.938622
     39          1           0       -1.792621   -3.059256   -0.450257
     40          1           0       -2.240076   -3.260681   -2.152761
 ---------------------------------------------------------------------

 SCF Done:  E(RHF) =  -470.732102371     A.U. after   11 cycles
 E2 =    -0.1585335730D+01 EUMP2 =    -0.47231743810155D+03

 The electronic state is 1-A.
 Alpha  occ. eigenvalues --  -11.21661 -11.21657 -11.21595 -11.21571 -11.21481
 Alpha  occ. eigenvalues --  -11.21420 -11.21334 -11.21250 -11.21175 -11.21113
 Alpha  occ. eigenvalues --  -11.21046 -11.21046  -1.08547  -1.08361  -1.03652
 Alpha  occ. eigenvalues --   -1.03474  -0.96062  -0.95947  -0.87091  -0.86951
 Alpha  occ. eigenvalues --   -0.79698  -0.79571  -0.78372  -0.78172  -0.65367
 Alpha  occ. eigenvalues --   -0.64889  -0.61310  -0.60666  -0.59430  -0.59264
 Alpha  occ. eigenvalues --   -0.57655  -0.57559  -0.55407  -0.55169  -0.52759
 Alpha  occ. eigenvalues --   -0.52652  -0.52485  -0.52370  -0.50134  -0.49803
 Alpha  occ. eigenvalues --   -0.47995  -0.47872  -0.46751  -0.46542  -0.46066
 Alpha  occ. eigenvalues --   -0.45849  -0.45587  -0.45431  -0.43858  -0.43746
 Alpha virt. eigenvalues --    0.20077   0.22765   0.23258   0.23947   0.25461
 Alpha virt. eigenvalues --    0.26080   0.26917   0.27823   0.29259   0.29900
 Alpha virt. eigenvalues --    0.30730   0.30846   0.31685   0.31961   0.32227

 Mulliken charges:
               1
     1  C   -0.298908
     2  C   -0.299689
     3  C   -0.475823
     4  H    0.149138
     5  H    0.149449
     6  H    0.152178
     7  H    0.152251
     8  H    0.155234
     9  H    0.155299
    10  H    0.160530
    11  C   -0.297221
    12  C   -0.310254
    13  C   -0.479036
    14  H    0.149786
    15  H    0.149843
    16  H    0.162614
    17  H    0.151701
    18  H    0.156165
    19  H    0.156002
    20  H    0.161836
    21  C   -0.298368
    22  C   -0.300022
    23  C   -0.475773
    24  H    0.150318
    25  H    0.149266
    26  H    0.151896
    27  H    0.151812
    28  H    0.155154
    29  H    0.155337
    30  H    0.159964
    31  C   -0.306199
    32  C   -0.302370
    33  C   -0.480643
    34  H    0.159414
    35  H    0.149489
    36  H    0.150725
    37  H    0.153121
    38  H    0.155393
    39  H    0.160524
    40  H    0.159867
 Sum of Mulliken charges =  -0.00000

 Dipole moment (field-independent basis, Debye):
    X=              0.0362    Y=             -0.0203    Z=              0.0193  Tot=              0.0458
 Quadrupole moment (field-independent basis, Debye-Ang):
   XX=            -83.9576   YY=            -86.7141   ZZ=            -84.1442
   XY=             -0.3873   XZ=              0.5547   YZ=              0.7839

 Normal termination of Gaussian 16 at Thu May  6 05:23:05 2021.
