 Gaussian 16, Revision A.03,
 Gaussian 16:  EM64L-G16RevA.03 25-Dec-2016

 -------------
 #p 6-31g* mp2
 -------------

 ------------------------------------------------------
 Input file generated by CHIRIPA (05-May-2021 14:55:23)
 ------------------------------------------------------
 Symbolic Z-matrix:
 Charge =  0 Multiplicity = 1

                         Standard orientation:
 ---------------------------------------------------------------------
 Center     Atomic      Atomic             Coordinates (Angstroms)
 Number     Number       Type             X           Y           Z
 ---------------------------------------------------------------------
      1          6           0        0.591132   -0.129552   -0.129131
      2          6           0        1.328337    1.003248   -0.489427
      3          6           0        2.725449    0.986105   -0.441118
      4          6           0        3.355632   -0.185980   -0.025937
      5          6           0        2.649024   -1.330779    0.339345
      6          6           0        1.252662   -1.290903    0.283378
      7          1           0       -0.493886   -0.107405   -0.169632
      8          1           0        0.817259    1.906556   -0.810174
      9          1           0        3.320775    1.848820   -0.714480
     10          1           0        3.186672   -2.216621    0.654999
     11          1           0        0.682719   -2.172145    0.563772
     12          7           0        4.834294   -0.216162    0.029259
     13          8           0        5.365694   -1.261115    0.398481
     14          8           0        5.433871    0.805705   -0.297745
     15          6           0       -3.387038    0.704514    0.110982
     16          6           0       -3.788545    2.176638    0.209109
     17          6           0       -2.584825    3.110162    0.340960
     18          1           0       -2.804018    0.429959    1.000731
     19          1           0       -2.721227    0.570047   -0.752735
     20          1           0       -4.454511    2.308039    1.071570
     21          1           0       -4.370842    2.447670   -0.680886
     22          1           0       -1.921820    3.008433   -0.524301
     23          1           0       -2.005965    2.868008    1.238112
     24          1           0       -2.894716    4.157594    0.409620
     25          6           0       -4.579503   -0.241139   -0.021297
     26          6           0       -4.177996   -1.713263   -0.119422
     27          6           0       -5.381716   -2.646787   -0.251273
     28          1           0       -5.245314   -0.106671    0.842421
     29          1           0       -5.162523    0.033417   -0.911044
     30          1           0       -3.595700   -1.984295    0.770571
     31          1           0       -3.512031   -1.844664   -0.981884
     32          1           0       -5.960576   -2.404633   -1.148426
     33          1           0       -6.044721   -2.545057    0.613988
     34          1           0       -5.071825   -3.694219   -0.319935
 ---------------------------------------------------------------------

 SCF Done:  E(RHF) =  -669.535596304     A.U. after   15 cycles
 E2 =    -0.2091959529D+01 EUMP2 =    -0.67162755583311D+03

 The electronic state is 1-A.
 Alpha  occ. eigenvalues --  -20.60665 -20.60660 -15.85718 -11.31050 -11.27624
 Alpha  occ. eigenvalues --  -11.27619 -11.27248 -11.26610 -11.26596 -11.22779
 Alpha  occ. eigenvalues --  -11.22704 -11.22654 -11.22444 -11.22240 -11.21891
 Alpha  occ. eigenvalues --   -1.59742  -1.39296  -1.19216  -1.09596  -1.08604
 Alpha  occ. eigenvalues --   -1.04623  -1.04595  -0.97059  -0.95450  -0.88069
 Alpha  occ. eigenvalues --   -0.86011  -0.82296  -0.80681  -0.79471  -0.77348
 Alpha  occ. eigenvalues --   -0.71936  -0.71066  -0.70301  -0.66209  -0.64861
 Alpha  occ. eigenvalues --   -0.64625  -0.62012  -0.61941  -0.60422  -0.58697
 Alpha  occ. eigenvalues --   -0.56350  -0.55147  -0.53695  -0.53443  -0.52948
 Alpha  occ. eigenvalues --   -0.52699  -0.50987  -0.48980  -0.48693  -0.48692
 Alpha  occ. eigenvalues --   -0.47708  -0.46918  -0.46885  -0.44880  -0.44710
 Alpha  occ. eigenvalues --   -0.37178  -0.36233
 Alpha virt. eigenvalues --    0.05180   0.11414   0.16648   0.19462   0.22316
 Alpha virt. eigenvalues --    0.23167   0.24885   0.25302   0.26075   0.28202
 Alpha virt. eigenvalues --    0.29437   0.30154   0.30845   0.31292   0.31604

 Mulliken charges:
               1
     1  C   -0.179456
     2  C   -0.224275
     3  C   -0.171058
     4  C    0.158067
     5  C   -0.170803
     6  C   -0.221943
     7  H    0.240471
     8  H    0.225152
     9  H    0.275162
    10  H    0.274915
    11  H    0.223362
    12  N    0.488021
    13  O   -0.460914
    14  O   -0.460855
    15  C   -0.307800
    16  C   -0.299015
    17  C   -0.479657
    18  H    0.149683
    19  H    0.145003
    20  H    0.157048
    21  H    0.155914
    22  H    0.148697
    23  H    0.157872
    24  H    0.166899
    25  C   -0.297138
    26  C   -0.302109
    27  C   -0.476018
    28  H    0.153815
    29  H    0.153462
    30  H    0.149670
    31  H    0.150098
    32  H    0.157708
    33  H    0.157672
    34  H    0.162349
 Sum of Mulliken charges =  -0.00000

 Dipole moment (field-independent basis, Debye):
    X=             -5.6061    Y=              0.1623    Z=             -0.1507  Tot=              5.6104
 Quadrupole moment (field-independent basis, Debye-Ang):
   XX=           -129.5964   YY=            -90.5496   ZZ=            -93.9979
   XY=              0.7574   XZ=             -0.8038   YZ=             -1.7714

 Normal termination of Gaussian 16 at Wed May  5 20:42:24 2021.
