 Gaussian 16, Revision A.03,
 Gaussian 16:  EM64L-G16RevA.03 25-Dec-2016

 -------------
 #p 6-31g* mp2
 -------------

 ------------------------------------------------------
 Input file generated by CHIRIPA (05-May-2021 14:53:17)
 ------------------------------------------------------
 Symbolic Z-matrix:
 Charge =  0 Multiplicity = 1

                         Standard orientation:
 ---------------------------------------------------------------------
 Center     Atomic      Atomic             Coordinates (Angstroms)
 Number     Number       Type             X           Y           Z
 ---------------------------------------------------------------------
      1          6           0       -4.147541   -0.708919   -0.224186
      2          6           0       -5.080126   -1.579237    0.618915
      3          6           0       -5.092786   -3.040383    0.168710
      4          1           0       -4.454747   -0.766931   -1.277374
      5          1           0       -3.129129   -1.118279   -0.172650
      6          1           0       -6.096213   -1.167557    0.566920
      7          1           0       -4.770782   -1.518995    1.670244
      8          1           0       -4.089579   -3.473353    0.237372
      9          1           0       -5.422541   -3.119919   -0.872221
     10          1           0       -5.765939   -3.644526    0.784937
     11          6           0       -4.124044    0.754442    0.213705
     12          6           0       -3.191459    1.624759   -0.629395
     13          6           0       -3.178800    3.085906   -0.179190
     14          1           0       -5.142456    1.163802    0.162170
     15          1           0       -3.816839    0.812454    1.266893
     16          1           0       -3.500803    1.564518   -1.680725
     17          1           0       -2.175372    1.213080   -0.577400
     18          1           0       -2.849045    3.165441    0.861741
     19          1           0       -4.182006    3.518876   -0.247853
     20          1           0       -2.505647    3.690049   -0.795418
     21          6           0        1.707694    1.988581    0.144452
     22          6           0        3.054252    2.105533    0.504488
     23          6           0        3.907497    1.000513    0.430670
     24          6           0        3.378364   -0.211750   -0.009476
     25          6           0        2.041369   -0.360028   -0.375189
     26          6           0        1.206434    0.758342   -0.293465
     27          1           0        1.051985    2.852174    0.204866
     28          1           0        3.446285    3.059709    0.844936
     29          1           0        4.954027    1.063032    0.703221
     30          1           0        1.679529   -1.324311   -0.710823
     31          1           0        0.161106    0.664578   -0.573721
     32          7           0        4.271964   -1.388653   -0.091808
     33          8           0        3.781349   -2.445587   -0.482735
     34          8           0        5.446063   -1.231890    0.236148
 ---------------------------------------------------------------------

 SCF Done:  E(RHF) =  -669.535542454     A.U. after   15 cycles
 E2 =    -0.2091107564D+01 EUMP2 =    -0.67162665001858D+03

 The electronic state is 1-A.
 Alpha  occ. eigenvalues --  -20.60746 -20.60741 -15.85799 -11.31162 -11.27733
 Alpha  occ. eigenvalues --  -11.27728 -11.27467 -11.26746 -11.26722 -11.22701
 Alpha  occ. eigenvalues --  -11.22188 -11.22109 -11.22103 -11.22038 -11.21444
 Alpha  occ. eigenvalues --   -1.59822  -1.39375  -1.19335  -1.09197  -1.08729
 Alpha  occ. eigenvalues --   -1.04739  -1.04280  -0.96706  -0.95564  -0.87725
 Alpha  occ. eigenvalues --   -0.86139  -0.82399  -0.80375  -0.78979  -0.77446
 Alpha  occ. eigenvalues --   -0.72018  -0.71145  -0.70439  -0.65862  -0.64986
 Alpha  occ. eigenvalues --   -0.64743  -0.62138  -0.61630  -0.60104  -0.58312
 Alpha  occ. eigenvalues --   -0.55982  -0.55237  -0.53417  -0.53131  -0.53068
 Alpha  occ. eigenvalues --   -0.52845  -0.50646  -0.48801  -0.48773  -0.48643
 Alpha  occ. eigenvalues --   -0.47403  -0.46514  -0.46420  -0.44782  -0.44526
 Alpha  occ. eigenvalues --   -0.37315  -0.36343
 Alpha virt. eigenvalues --    0.05090   0.11303   0.16581   0.18968   0.22698
 Alpha virt. eigenvalues --    0.23792   0.24537   0.26328   0.26819   0.28543
 Alpha virt. eigenvalues --    0.28956   0.30218   0.31024   0.31175   0.32076

 Mulliken charges:
               1
     1  C   -0.298212
     2  C   -0.300334
     3  C   -0.476317
     4  H    0.151360
     5  H    0.145892
     6  H    0.153197
     7  H    0.153091
     8  H    0.156267
     9  H    0.155957
    10  H    0.162393
    11  C   -0.298253
    12  C   -0.305494
    13  C   -0.477277
    14  H    0.153023
    15  H    0.151030
    16  H    0.156555
    17  H    0.144216
    18  H    0.155098
    19  H    0.161038
    20  H    0.157648
    21  C   -0.174137
    22  C   -0.218603
    23  C   -0.171249
    24  C    0.159042
    25  C   -0.173024
    26  C   -0.226828
    27  H    0.226428
    28  H    0.223371
    29  H    0.275502
    30  H    0.276138
    31  H    0.235545
    32  N    0.487955
    33  O   -0.460458
    34  O   -0.460559
 Sum of Mulliken charges =  -0.00000

 Dipole moment (field-independent basis, Debye):
    X=             -3.3837    Y=              4.1403    Z=              0.3086  Tot=              5.3561
 Quadrupole moment (field-independent basis, Debye-Ang):
   XX=           -111.7405   YY=            -96.3279   ZZ=            -94.6431
   XY=             16.9346   XZ=              2.9485   YZ=              0.6218

 Normal termination of Gaussian 16 at Wed May  5 23:38:45 2021.
