 Gaussian 16, Revision A.03,
 Gaussian 16:  EM64L-G16RevA.03 25-Dec-2016

 -------------
 #p 6-31g* mp2
 -------------

 ------------------------------------------------------
 Input file generated by CHIRIPA (05-May-2021 14:51:13)
 ------------------------------------------------------
 Symbolic Z-matrix:
 Charge =  0 Multiplicity = 1

                         Standard orientation:
 ---------------------------------------------------------------------
 Center     Atomic      Atomic             Coordinates (Angstroms)
 Number     Number       Type             X           Y           Z
 ---------------------------------------------------------------------
      1          6           0        3.401570    0.765676   -0.347021
      2          6           0        3.717529    2.088264    0.352205
      3          6           0        3.963944    3.232764   -0.631254
      4          1           0        4.233105    0.503903   -1.015579
      5          1           0        2.517169    0.898592   -0.985429
      6          1           0        4.600246    1.952524    0.990171
      7          1           0        2.885230    2.346822    1.019320
      8          1           0        3.082789    3.396929   -1.259917
      9          1           0        4.807550    3.000391   -1.289231
     10          1           0        4.187988    4.168722   -0.110055
     11          6           0        3.152802   -0.388055    0.622900
     12          6           0        2.836843   -1.710642   -0.076326
     13          6           0        2.590427   -2.855143    0.907133
     14          1           0        4.037202   -0.520971    1.261308
     15          1           0        2.321267   -0.126282    1.291458
     16          1           0        3.669141   -1.969200   -0.743441
     17          1           0        1.954125   -1.574903   -0.714292
     18          1           0        1.746822   -2.622770    1.565110
     19          1           0        3.471582   -3.019308    1.535795
     20          1           0        2.366384   -3.791100    0.385934
     21          6           0       -2.589002   -0.430028   -0.365205
     22          6           0       -2.465659   -1.953348   -0.412826
     23          6           0       -1.083198   -2.420514   -0.869286
     24          1           0       -2.371985   -0.019645   -1.360912
     25          1           0       -1.822937   -0.028104    0.312287
     26          1           0       -3.232622   -2.352385   -1.088956
     27          1           0       -2.683183   -2.360166    0.583066
     28          1           0       -0.307940   -2.050155   -0.190752
     29          1           0       -0.860501   -2.042330   -1.872274
     30          1           0       -1.017094   -3.512655   -0.896091
     31          6           0       -3.965369    0.052407    0.089325
     32          6           0       -4.088714    1.575727    0.136947
     33          6           0       -5.471173    2.042893    0.593408
     34          1           0       -4.731435   -0.349518   -0.588166
     35          1           0       -4.182387   -0.357976    1.085034
     36          1           0       -3.871190    1.982545   -0.858944
     37          1           0       -3.321750    1.974764    0.813078
     38          1           0       -5.693871    1.664708    1.596394
     39          1           0       -6.246432    1.672534   -0.085127
     40          1           0       -5.537278    3.135034    0.620213
 ---------------------------------------------------------------------

 SCF Done:  E(RHF) =  -470.732934157     A.U. after   11 cycles
 E2 =    -0.1583030239D+01 EUMP2 =    -0.47231596439672D+03

 The electronic state is 1-A.
 Alpha  occ. eigenvalues --  -11.21635 -11.21631 -11.21583 -11.21499 -11.21449
 Alpha  occ. eigenvalues --  -11.21388 -11.21375 -11.21317 -11.21096 -11.21074
 Alpha  occ. eigenvalues --  -11.21055 -11.21030  -1.08471  -1.08395  -1.03584
 Alpha  occ. eigenvalues --   -1.03477  -0.96042  -0.95923  -0.87036  -0.86962
 Alpha  occ. eigenvalues --   -0.79661  -0.79528  -0.78294  -0.78197  -0.65158
 Alpha  occ. eigenvalues --   -0.64995  -0.61148  -0.60756  -0.59383  -0.59310
 Alpha  occ. eigenvalues --   -0.57642  -0.57535  -0.55471  -0.55075  -0.52716
 Alpha  occ. eigenvalues --   -0.52619  -0.52450  -0.52356  -0.49972  -0.49868
 Alpha  occ. eigenvalues --   -0.48072  -0.47774  -0.46688  -0.46541  -0.45890
 Alpha  occ. eigenvalues --   -0.45767  -0.45720  -0.45551  -0.43820  -0.43744
 Alpha virt. eigenvalues --    0.21127   0.23096   0.23712   0.24952   0.26334
 Alpha virt. eigenvalues --    0.26488   0.27292   0.27564   0.27982   0.29079
 Alpha virt. eigenvalues --    0.30292   0.31259   0.31552   0.31829   0.32358

 Mulliken charges:
               1
     1  C   -0.298320
     2  C   -0.299554
     3  C   -0.475708
     4  H    0.149658
     5  H    0.149884
     6  H    0.151854
     7  H    0.151711
     8  H    0.155246
     9  H    0.155147
    10  H    0.160148
    11  C   -0.298106
    12  C   -0.306291
    13  C   -0.475694
    14  H    0.149507
    15  H    0.148307
    16  H    0.151985
    17  H    0.158738
    18  H    0.154053
    19  H    0.155017
    20  H    0.161156
    21  C   -0.298225
    22  C   -0.299940
    23  C   -0.481233
    24  H    0.149566
    25  H    0.148623
    26  H    0.152011
    27  H    0.152006
    28  H    0.162601
    29  H    0.154601
    30  H    0.160814
    31  C   -0.298272
    32  C   -0.299668
    33  C   -0.475733
    34  H    0.149748
    35  H    0.149765
    36  H    0.151947
    37  H    0.151775
    38  H    0.155249
    39  H    0.155276
    40  H    0.160350
 Sum of Mulliken charges =  -0.00000

 Dipole moment (field-independent basis, Debye):
    X=             -0.0197    Y=             -0.0185    Z=             -0.0179  Tot=              0.0324
 Quadrupole moment (field-independent basis, Debye-Ang):
   XX=            -84.6744   YY=            -85.8156   ZZ=            -84.2942
   XY=              0.0305   XZ=              0.6640   YZ=              0.4045

 Normal termination of Gaussian 16 at Wed May  5 21:36:22 2021.
