 Gaussian 16, Revision A.03,
 Gaussian 16:  EM64L-G16RevA.03 25-Dec-2016

 -------------
 #p 6-31g* mp2
 -------------

 ------------------------------------------------------
 Input file generated by CHIRIPA (05-May-2021 14:57:25)
 ------------------------------------------------------
 Symbolic Z-matrix:
 Charge =  0 Multiplicity = 1

                         Standard orientation:
 ---------------------------------------------------------------------
 Center     Atomic      Atomic             Coordinates (Angstroms)
 Number     Number       Type             X           Y           Z
 ---------------------------------------------------------------------
      1          6           0       -5.055819    1.929868   -0.122136
      2          6           0       -5.546648    0.672830   -0.490189
      3          6           0       -4.702346   -0.441324   -0.509225
      4          6           0       -3.366721   -0.261546   -0.152747
      5          6           0       -2.847870    0.977903    0.218533
      6          6           0       -3.710369    2.078132    0.230428
      7          1           0       -5.718762    2.789961   -0.110122
      8          1           0       -6.591091    0.554721   -0.764477
      9          1           0       -5.056012   -1.425924   -0.790117
     10          1           0       -1.801961    1.064396    0.486881
     11          1           0       -3.326426    3.053165    0.516686
     12          7           0       -2.463264   -1.433680   -0.169119
     13          8           0       -1.290593   -1.248918    0.149224
     14          8           0       -2.944912   -2.514966   -0.499986
     15          6           0        5.619256    0.871546   -0.988171
     16          6           0        4.734022    1.794377   -0.421370
     17          6           0        3.565440    1.360698    0.211788
     18          6           0        3.312249   -0.009284    0.260087
     19          6           0        4.174627   -0.953335   -0.295217
     20          6           0        5.337231   -0.496952   -0.923400
     21          1           0        6.524716    1.217257   -1.478091
     22          1           0        4.950475    2.857773   -0.470171
     23          1           0        2.862823    2.053406    0.658893
     24          1           0        3.931764   -2.007034   -0.230748
     25          1           0        6.022903   -1.215911   -1.362714
     26          7           0        2.078289   -0.480418    0.927750
     27          8           0        1.878100   -1.692734    0.956944
     28          8           0        1.334664    0.371543    1.409227
 ---------------------------------------------------------------------

 SCF Done:  E(RHF) =  -868.336147591     A.U. after   16 cycles
 E2 =    -0.2601068279D+01 EUMP2 =    -0.87093721586962D+03

 The electronic state is 1-A.
 Alpha  occ. eigenvalues --  -20.60011 -20.59889 -20.59538 -20.59436 -15.85007
 Alpha  occ. eigenvalues --  -15.84545 -11.30691 -11.30215 -11.27335 -11.27255
 Alpha  occ. eigenvalues --  -11.27093 -11.26888 -11.26733 -11.26695 -11.26404
 Alpha  occ. eigenvalues --  -11.26353 -11.25969 -11.25914  -1.58973  -1.58580
 Alpha  occ. eigenvalues --   -1.38539  -1.38115  -1.18886  -1.18440  -1.08218
 Alpha  occ. eigenvalues --   -1.07792  -1.04341  -1.03883  -0.95007  -0.94557
 Alpha  occ. eigenvalues --   -0.85724  -0.85268  -0.81849  -0.81382  -0.76840
 Alpha  occ. eigenvalues --   -0.76368  -0.71227  -0.70880  -0.70163  -0.69998
 Alpha  occ. eigenvalues --   -0.69931  -0.69541  -0.64540  -0.64350  -0.64077
 Alpha  occ. eigenvalues --   -0.63896  -0.61689  -0.61204  -0.54829  -0.54404
 Alpha  occ. eigenvalues --   -0.52646  -0.52441  -0.52214  -0.51974  -0.48035
 Alpha  occ. eigenvalues --   -0.47990  -0.47489  -0.47431  -0.43851  -0.43457
 Alpha  occ. eigenvalues --   -0.36880  -0.36468  -0.35958  -0.35507
 Alpha virt. eigenvalues --    0.05692   0.06154   0.11692   0.12141   0.17107
 Alpha virt. eigenvalues --    0.17573   0.21755   0.22248   0.27654   0.28087
 Alpha virt. eigenvalues --    0.28631   0.29239   0.31244   0.31763   0.32878

 Mulliken charges:
               1
     1  C   -0.171821
     2  C   -0.219302
     3  C   -0.171760
     4  C    0.156657
     5  C   -0.175514
     6  C   -0.219907
     7  H    0.221661
     8  H    0.219840
     9  H    0.273456
    10  H    0.289843
    11  H    0.220488
    12  N    0.486585
    13  O   -0.444981
    14  O   -0.468142
    15  C   -0.171891
    16  C   -0.218402
    17  C   -0.171923
    18  C    0.160905
    19  C   -0.170520
    20  C   -0.218480
    21  H    0.223600
    22  H    0.220518
    23  H    0.270965
    24  H    0.277873
    25  H    0.222597
    26  N    0.491123
    27  O   -0.444534
    28  O   -0.468934
 Sum of Mulliken charges =  -0.00000

 Dipole moment (field-independent basis, Debye):
    X=              1.4297    Y=              5.5146    Z=             -2.1794  Tot=              6.0996
 Quadrupole moment (field-independent basis, Debye-Ang):
   XX=            -54.8270   YY=           -101.6337   ZZ=           -107.1705
   XY=             -6.9932   XZ=             -5.7361   YZ=              1.7450

 Normal termination of Gaussian 16 at Fri May  7 09:35:03 2021.
