 Gaussian 16, Revision A.03,
 Gaussian 16:  EM64L-G16RevA.03 25-Dec-2016

 -------------
 #p 6-31g* mp2
 -------------

 ------------------------------------------------------
 Input file generated by CHIRIPA (05-May-2021 14:53:15)
 ------------------------------------------------------
 Symbolic Z-matrix:
 Charge =  0 Multiplicity = 1

                         Standard orientation:
 ---------------------------------------------------------------------
 Center     Atomic      Atomic             Coordinates (Angstroms)
 Number     Number       Type             X           Y           Z
 ---------------------------------------------------------------------
      1          6           0       -4.421303    0.126499    0.247297
      2          6           0       -4.379965   -1.399042    0.152411
      3          6           0       -5.641807   -2.060282    0.707667
      4          1           0       -4.558294    0.418625    1.297459
      5          1           0       -5.300650    0.497105   -0.297492
      6          1           0       -3.500193   -1.766566    0.696051
      7          1           0       -4.242864   -1.687567   -0.897624
      8          1           0       -6.527095   -1.721865    0.159633
      9          1           0       -5.780204   -1.801313    1.762362
     10          1           0       -5.591007   -3.150803    0.629936
     11          6           0       -3.166821    0.801976   -0.303823
     12          6           0       -3.208160    2.327516   -0.208937
     13          6           0       -1.946318    2.988756   -0.764192
     14          1           0       -2.287475    0.431370    0.240967
     15          1           0       -3.029831    0.509850   -1.353985
     16          1           0       -3.345260    2.616042    0.841098
     17          1           0       -4.087932    2.695041   -0.752577
     18          1           0       -1.807921    2.729788   -1.818888
     19          1           0       -1.061030    2.650340   -0.216158
     20          1           0       -1.997118    4.079278   -0.686461
     21          6           0        5.222967    0.654328    0.500806
     22          6           0        5.133562   -0.557978   -0.191179
     23          6           0        3.887288   -1.130706   -0.461975
     24          6           0        2.745733   -0.461006   -0.024201
     25          6           0        2.802061    0.748020    0.667443
     26          6           0        4.058982    1.302315    0.927157
     27          1           0        6.195239    1.092078    0.706862
     28          1           0        6.035848   -1.063441   -0.523490
     29          1           0        3.789177   -2.068195   -0.995742
     30          1           0        1.884927    1.228411    0.986048
     31          1           0        4.125386    2.243917    1.464765
     32          7           0        1.420723   -1.057572   -0.305015
     33          8           0        0.429947   -0.447741    0.091352
     34          8           0        1.398044   -2.123694   -0.916165
 ---------------------------------------------------------------------

 SCF Done:  E(RHF) =  -669.536063698     A.U. after   15 cycles
 E2 =    -0.2091261291D+01 EUMP2 =    -0.67162732498964D+03

 The electronic state is 1-A.
 Alpha  occ. eigenvalues --  -20.60946 -20.60941 -15.85987 -11.31298 -11.27865
 Alpha  occ. eigenvalues --  -11.27858 -11.27596 -11.26868 -11.26858 -11.20673
 Alpha  occ. eigenvalues --  -11.20452 -11.20311 -11.20282 -11.20176 -11.19947
 Alpha  occ. eigenvalues --   -1.60007  -1.39564  -1.19466  -1.08871  -1.07303
 Alpha  occ. eigenvalues --   -1.04862  -1.02544  -0.95715  -0.94997  -0.86263
 Alpha  occ. eigenvalues --   -0.86024  -0.82553  -0.78591  -0.77612  -0.77048
 Alpha  occ. eigenvalues --   -0.72210  -0.71320  -0.70576  -0.65125  -0.64866
 Alpha  occ. eigenvalues --   -0.63935  -0.62212  -0.59955  -0.58364  -0.56595
 Alpha  occ. eigenvalues --   -0.55366  -0.54293  -0.53193  -0.52955  -0.51754
 Alpha  occ. eigenvalues --   -0.51424  -0.49055  -0.48961  -0.48864  -0.46911
 Alpha  occ. eigenvalues --   -0.45614  -0.44994  -0.44626  -0.44442  -0.42748
 Alpha  occ. eigenvalues --   -0.37444  -0.36463
 Alpha virt. eigenvalues --    0.04922   0.11189   0.16422   0.21043   0.23797
 Alpha virt. eigenvalues --    0.24828   0.26590   0.27494   0.28029   0.28992
 Alpha virt. eigenvalues --    0.29078   0.30580   0.31611   0.32529   0.32772

 Mulliken charges:
               1
     1  C   -0.297832
     2  C   -0.299412
     3  C   -0.475256
     4  H    0.145147
     5  H    0.144255
     6  H    0.159535
     7  H    0.152743
     8  H    0.152046
     9  H    0.152323
    10  H    0.158678
    11  C   -0.306692
    12  C   -0.298630
    13  C   -0.474343
    14  H    0.176081
    15  H    0.149151
    16  H    0.147276
    17  H    0.147706
    18  H    0.155257
    19  H    0.155587
    20  H    0.153311
    21  C   -0.170552
    22  C   -0.218603
    23  C   -0.170427
    24  C    0.157489
    25  C   -0.170961
    26  C   -0.218576
    27  H    0.226034
    28  H    0.223828
    29  H    0.275863
    30  H    0.275730
    31  H    0.223994
    32  N    0.495031
    33  O   -0.466972
    34  O   -0.458812
 Sum of Mulliken charges =  -0.00000

 Dipole moment (field-independent basis, Debye):
    X=              4.9924    Y=              1.9328    Z=              0.9808  Tot=              5.4426
 Quadrupole moment (field-independent basis, Debye-Ang):
   XX=            -70.4717   YY=            -95.1450   ZZ=            -93.7928
   XY=              1.5542   XZ=              2.2822   YZ=              1.9354

 Normal termination of Gaussian 16 at Thu May  6 20:24:21 2021.
