 Gaussian 16, Revision A.03,
 Gaussian 16:  EM64L-G16RevA.03 25-Dec-2016

 -------------
 #p 6-31g* mp2
 -------------

 ------------------------------------------------------
 Input file generated by CHIRIPA (05-May-2021 14:55:19)
 ------------------------------------------------------
 Symbolic Z-matrix:
 Charge =  0 Multiplicity = 1

                         Standard orientation:
 ---------------------------------------------------------------------
 Center     Atomic      Atomic             Coordinates (Angstroms)
 Number     Number       Type             X           Y           Z
 ---------------------------------------------------------------------
      1          6           0        2.675654   -2.769645    0.315869
      2          6           0        3.309352   -2.135376   -0.757746
      3          6           0        3.231147   -0.747750   -0.909161
      4          6           0        2.507604   -0.021985    0.035847
      5          6           0        1.865322   -0.624868    1.116262
      6          6           0        1.956929   -2.013700    1.247804
      7          1           0        2.741611   -3.848054    0.425773
      8          1           0        3.868213   -2.719918   -1.483025
      9          1           0        3.712106   -0.231082   -1.730837
     10          1           0        1.315491   -0.015462    1.823176
     11          1           0        1.463781   -2.503595    2.082582
     12          7           0        2.417718    1.447671   -0.113930
     13          8           0        1.774138    2.064524    0.732199
     14          8           0        2.992547    1.954905   -1.074618
     15          6           0       -3.494120   -0.236720   -0.504651
     16          6           0       -4.328421   -1.244859    0.286286
     17          6           0       -4.852369   -2.389102   -0.582035
     18          1           0       -4.102763    0.171289   -1.323203
     19          1           0       -2.648812   -0.758853   -0.973936
     20          1           0       -5.171124   -0.720735    0.755073
     21          1           0       -3.717782   -1.650373    1.103167
     22          1           0       -4.022112   -2.937574   -1.038602
     23          1           0       -5.483711   -2.002653   -1.388673
     24          1           0       -5.446067   -3.098020    0.003470
     25          6           0       -2.963270    0.913077    0.349688
     26          6           0       -2.128968    1.921216   -0.441248
     27          6           0       -1.605021    3.065459    0.427073
     28          1           0       -3.808577    1.435210    0.818973
     29          1           0       -2.354626    0.505068    1.168240
     30          1           0       -2.739608    2.326730   -1.258129
     31          1           0       -1.286266    1.397092   -0.910036
     32          1           0       -0.973678    2.679009    1.233711
     33          1           0       -2.435278    3.613930    0.883641
     34          1           0       -1.011321    3.774376   -0.158432
 ---------------------------------------------------------------------

 SCF Done:  E(RHF) =  -669.535831693     A.U. after   15 cycles
 E2 =    -0.2091725381D+01 EUMP2 =    -0.67162755707358D+03

 The electronic state is 1-A.
 Alpha  occ. eigenvalues --  -20.60930 -20.60908 -15.85951 -11.31300 -11.27869
 Alpha  occ. eigenvalues --  -11.27856 -11.27599 -11.26875 -11.26864 -11.21569
 Alpha  occ. eigenvalues --  -11.21200 -11.21104 -11.21030 -11.20900 -11.19858
 Alpha  occ. eigenvalues --   -1.59981  -1.39537  -1.19468  -1.08866  -1.08115
 Alpha  occ. eigenvalues --   -1.04867  -1.03094  -0.95715  -0.95506  -0.86533
 Alpha  occ. eigenvalues --   -0.86265  -0.82539  -0.79201  -0.77896  -0.77587
 Alpha  occ. eigenvalues --   -0.72179  -0.71300  -0.70574  -0.65127  -0.64871
 Alpha  occ. eigenvalues --   -0.64752  -0.62215  -0.60488  -0.58956  -0.57115
 Alpha  occ. eigenvalues --   -0.55367  -0.54802  -0.53196  -0.52959  -0.52169
 Alpha  occ. eigenvalues --   -0.51949  -0.49495  -0.48939  -0.48905  -0.47491
 Alpha  occ. eigenvalues --   -0.46267  -0.45441  -0.45353  -0.44868  -0.43354
 Alpha  occ. eigenvalues --   -0.37444  -0.36469
 Alpha virt. eigenvalues --    0.04923   0.11166   0.16395   0.21051   0.22997
 Alpha virt. eigenvalues --    0.24453   0.26431   0.27278   0.27663   0.28203
 Alpha virt. eigenvalues --    0.28880   0.30661   0.31635   0.31950   0.32435

 Mulliken charges:
               1
     1  C   -0.170703
     2  C   -0.218478
     3  C   -0.170896
     4  C    0.158098
     5  C   -0.171244
     6  C   -0.218528
     7  H    0.226090
     8  H    0.223919
     9  H    0.275955
    10  H    0.275377
    11  H    0.223899
    12  N    0.489881
    13  O   -0.460463
    14  O   -0.459355
    15  C   -0.297742
    16  C   -0.298525
    17  C   -0.475289
    18  H    0.150332
    19  H    0.147439
    20  H    0.152626
    21  H    0.147853
    22  H    0.153207
    23  H    0.156161
    24  H    0.158985
    25  C   -0.296500
    26  C   -0.299028
    27  C   -0.474185
    28  H    0.149258
    29  H    0.143350
    30  H    0.149476
    31  H    0.148673
    32  H    0.166057
    33  H    0.146006
    34  H    0.168294
 Sum of Mulliken charges =  -0.00000

 Dipole moment (field-independent basis, Debye):
    X=              0.5205    Y=             -5.0852    Z=              0.5190  Tot=              5.1380
 Quadrupole moment (field-independent basis, Debye-Ang):
   XX=            -92.1177   YY=            -95.4140   ZZ=            -91.8144
   XY=            -14.1885   XZ=             -1.3737   YZ=             -0.5244

 Normal termination of Gaussian 16 at Wed May  5 22:08:05 2021.
