 Gaussian 16, Revision A.03,
 Gaussian 16:  EM64L-G16RevA.03 25-Dec-2016

 -------------
 #p 6-31g* mp2
 -------------

 ------------------------------------------------------
 Input file generated by CHIRIPA (05-May-2021 14:55:23)
 ------------------------------------------------------
 Symbolic Z-matrix:
 Charge =  0 Multiplicity = 1

                         Standard orientation:
 ---------------------------------------------------------------------
 Center     Atomic      Atomic             Coordinates (Angstroms)
 Number     Number       Type             X           Y           Z
 ---------------------------------------------------------------------
      1          6           0        5.244169    0.007252   -1.334171
      2          6           0        4.011380    0.483051   -1.792830
      3          6           0        2.862002    0.348520   -1.008369
      4          6           0        2.982210   -0.269725    0.235260
      5          6           0        4.196203   -0.754036    0.719981
      6          6           0        5.332490   -0.608687   -0.081438
      7          1           0        6.131950    0.115961   -1.950145
      8          1           0        3.939810    0.961819   -2.765303
      9          1           0        1.895030    0.707813   -1.338964
     10          1           0        4.236155   -1.226843    1.693775
     11          1           0        6.288571   -0.979147    0.277329
     12          7           0        1.772344   -0.417873    1.074709
     13          8           0        1.904751   -0.966308    2.166646
     14          8           0        0.714552    0.017247    0.624838
     15          6           0       -4.746384   -0.039780   -0.059986
     16          6           0       -4.781400   -1.406311   -0.745079
     17          6           0       -6.136220   -2.101669   -0.608209
     18          1           0       -4.990703   -0.163713    1.003918
     19          1           0       -5.531816    0.597850   -0.488844
     20          1           0       -3.995233   -2.040714   -0.316020
     21          1           0       -4.536782   -1.279135   -1.807437
     22          1           0       -6.928996   -1.491716   -1.053253
     23          1           0       -6.384371   -2.257621    0.446637
     24          1           0       -6.139007   -3.076813   -1.105145
     25          6           0       -3.398538    0.667770   -0.188099
     26          6           0       -3.363523    2.034301    0.496994
     27          6           0       -2.008703    2.729659    0.360123
     28          1           0       -2.613107    0.030139    0.240760
     29          1           0       -3.154219    0.791703   -1.252003
     30          1           0       -3.608141    1.907126    1.559351
     31          1           0       -4.149690    2.668704    0.067935
     32          1           0       -1.760552    2.885612   -0.694722
     33          1           0       -1.215927    2.119706    0.805168
     34          1           0       -2.005916    3.704804    0.857060
 ---------------------------------------------------------------------

 SCF Done:  E(RHF) =  -669.536410168     A.U. after   15 cycles
 E2 =    -0.2091006468D+01 EUMP2 =    -0.67162741663558D+03

 The electronic state is 1-A.
 Alpha  occ. eigenvalues --  -20.60990 -20.60984 -15.86019 -11.31304 -11.27866
 Alpha  occ. eigenvalues --  -11.27856 -11.27600 -11.26866 -11.26855 -11.20849
 Alpha  occ. eigenvalues --  -11.20539 -11.20502 -11.20460 -11.20217 -11.19825
 Alpha  occ. eigenvalues --   -1.60048  -1.39605  -1.19470  -1.08882  -1.07465
 Alpha  occ. eigenvalues --   -1.04861  -1.02595  -0.95730  -0.95039  -0.86263
 Alpha  occ. eigenvalues --   -0.86060  -0.82566  -0.78685  -0.77625  -0.77243
 Alpha  occ. eigenvalues --   -0.72246  -0.71357  -0.70580  -0.65129  -0.64865
 Alpha  occ. eigenvalues --   -0.64089  -0.62208  -0.59986  -0.58433  -0.56649
 Alpha  occ. eigenvalues --   -0.55370  -0.54312  -0.53195  -0.52953  -0.51775
 Alpha  occ. eigenvalues --   -0.51459  -0.49054  -0.49004  -0.48916  -0.46991
 Alpha  occ. eigenvalues --   -0.45722  -0.44996  -0.44821  -0.44638  -0.42847
 Alpha  occ. eigenvalues --   -0.37449  -0.36461
 Alpha virt. eigenvalues --    0.04881   0.11195   0.16364   0.21289   0.23799
 Alpha virt. eigenvalues --    0.25182   0.27217   0.27575   0.27929   0.28593
 Alpha virt. eigenvalues --    0.29069   0.30944   0.32248   0.32324   0.32733

 Mulliken charges:
               1
     1  C   -0.170484
     2  C   -0.218603
     3  C   -0.170576
     4  C    0.157575
     5  C   -0.170589
     6  C   -0.218643
     7  H    0.226052
     8  H    0.224000
     9  H    0.276644
    10  H    0.275779
    11  H    0.223818
    12  N    0.492467
    13  O   -0.458875
    14  O   -0.464493
    15  C   -0.297696
    16  C   -0.299289
    17  C   -0.475143
    18  H    0.149459
    19  H    0.145543
    20  H    0.154926
    21  H    0.149003
    22  H    0.153195
    23  H    0.155055
    24  H    0.157862
    25  C   -0.302757
    26  C   -0.297418
    27  C   -0.485221
    28  H    0.168116
    29  H    0.143357
    30  H    0.151511
    31  H    0.145576
    32  H    0.145695
    33  H    0.181215
    34  H    0.152939
 Sum of Mulliken charges =  -0.00000

 Dipole moment (field-independent basis, Debye):
    X=              4.6075    Y=              0.3913    Z=             -2.8501  Tot=              5.4319
 Quadrupole moment (field-independent basis, Debye-Ang):
   XX=            -70.1345   YY=            -95.6789   ZZ=            -93.2677
   XY=             -1.3931   XZ=             -5.8727   YZ=             -1.3570

 Normal termination of Gaussian 16 at Wed May  5 23:58:03 2021.
