 Gaussian 16, Revision A.03,
 Gaussian 16:  EM64L-G16RevA.03 25-Dec-2016

 -------------
 #p 6-31g* mp2
 -------------

 ------------------------------------------------------
 Input file generated by CHIRIPA (05-May-2021 14:57:21)
 ------------------------------------------------------
 Symbolic Z-matrix:
 Charge =  0 Multiplicity = 1

                         Standard orientation:
 ---------------------------------------------------------------------
 Center     Atomic      Atomic             Coordinates (Angstroms)
 Number     Number       Type             X           Y           Z
 ---------------------------------------------------------------------
      1          6           0       -4.151618   -2.216496    0.360398
      2          6           0       -4.674085   -1.431652   -0.672835
      3          6           0       -4.228867   -0.120085   -0.862888
      4          6           0       -3.255725    0.376907    0.002724
      5          6           0       -2.715798   -0.380158    1.041292
      6          6           0       -3.175862   -1.689173    1.212661
      7          1           0       -4.503240   -3.234361    0.500778
      8          1           0       -5.431959   -1.838552   -1.336238
      9          1           0       -4.616242    0.509481   -1.654724
     10          1           0       -1.961258    0.053131    1.686543
     11          1           0       -2.768315   -2.296390    2.015928
     12          7           0       -2.776534    1.764053   -0.188586
     13          8           0       -1.918395    2.178542    0.587580
     14          8           0       -3.268156    2.410545   -1.111079
     15          6           0        5.853049   -0.103997   -0.182186
     16          6           0        5.170262    0.942445    0.446527
     17          6           0        3.775041    0.928395    0.534318
     18          6           0        3.091237   -0.152570   -0.019953
     19          6           0        3.742924   -1.210047   -0.652673
     20          6           0        5.138461   -1.175015   -0.728817
     21          1           0        6.937014   -0.084933   -0.245861
     22          1           0        5.722616    1.775496    0.871940
     23          1           0        3.221223    1.725385    1.015474
     24          1           0        3.164869   -2.026943   -1.067341
     25          1           0        5.666078   -1.989072   -1.217668
     26          7           0        1.614011   -0.178550    0.066822
     27          8           0        1.034748   -1.142305   -0.429431
     28          8           0        1.063398    0.765333    0.629446
 ---------------------------------------------------------------------

 SCF Done:  E(RHF) =  -868.337731533     A.U. after   16 cycles
 E2 =    -0.2600218387D+01 EUMP2 =    -0.87093794992064D+03

 The electronic state is 1-A.
 Alpha  occ. eigenvalues --  -20.60706 -20.60615 -20.59330 -20.59204 -15.85679
 Alpha  occ. eigenvalues --  -15.84312 -11.31065 -11.29721 -11.27664 -11.27603
 Alpha  occ. eigenvalues --  -11.27396 -11.26677 -11.26638 -11.26422 -11.26236
 Alpha  occ. eigenvalues --  -11.26202 -11.25467 -11.25360  -1.59738  -1.58339
 Alpha  occ. eigenvalues --   -1.39281  -1.37884  -1.19244  -1.17936  -1.08642
 Alpha  occ. eigenvalues --   -1.07347  -1.04647  -1.03361  -0.95469  -0.94164
 Alpha  occ. eigenvalues --   -0.86045  -0.84767  -0.82293  -0.81002  -0.77341
 Alpha  occ. eigenvalues --   -0.76012  -0.71891  -0.71060  -0.70543  -0.70351
 Alpha  occ. eigenvalues --   -0.69640  -0.69096  -0.64893  -0.64653  -0.63613
 Alpha  occ. eigenvalues --   -0.63410  -0.61990  -0.60711  -0.55157  -0.53935
 Alpha  occ. eigenvalues --   -0.52980  -0.52739  -0.51676  -0.51488  -0.48693
 Alpha  occ. eigenvalues --   -0.48672  -0.47337  -0.47255  -0.44687  -0.43237
 Alpha  occ. eigenvalues --   -0.37232  -0.36252  -0.35954  -0.34935
 Alpha virt. eigenvalues --    0.05183   0.06541   0.11402   0.12707   0.16663
 Alpha virt. eigenvalues --    0.17981   0.21536   0.22655   0.27447   0.28421
 Alpha virt. eigenvalues --    0.28561   0.29599   0.31088   0.32123   0.32698

 Mulliken charges:
               1
     1  C   -0.170945
     2  C   -0.219640
     3  C   -0.171710
     4  C    0.157587
     5  C   -0.157749
     6  C   -0.217704
     7  H    0.219826
     8  H    0.217516
     9  H    0.271172
    10  H    0.283666
    11  H    0.219132
    12  N    0.487439
    13  O   -0.449628
    14  O   -0.470677
    15  C   -0.170821
    16  C   -0.218728
    17  C   -0.170789
    18  C    0.157902
    19  C   -0.171332
    20  C   -0.218696
    21  H    0.225246
    22  H    0.224087
    23  H    0.279470
    24  H    0.274044
    25  H    0.222503
    26  N    0.486955
    27  O   -0.466967
    28  O   -0.451159
 Sum of Mulliken charges =  -0.00000

 Dipole moment (field-independent basis, Debye):
    X=              3.8966    Y=             -4.5964    Z=              0.5482  Tot=              6.0507
 Quadrupole moment (field-independent basis, Debye-Ang):
   XX=            -62.7815   YY=           -105.9612   ZZ=           -101.7358
   XY=             14.6887   XZ=             -0.7548   YZ=              2.5344

 Normal termination of Gaussian 16 at Thu May  6 17:48:50 2021.
