 Gaussian 16, Revision A.03,
 Gaussian 16:  EM64L-G16RevA.03 25-Dec-2016

 -------------
 #p 6-31g* mp2
 -------------

 ------------------------------------------------------
 Input file generated by CHIRIPA (05-May-2021 14:57:26)
 ------------------------------------------------------
 Symbolic Z-matrix:
 Charge =  0 Multiplicity = 1

                         Standard orientation:
 ---------------------------------------------------------------------
 Center     Atomic      Atomic             Coordinates (Angstroms)
 Number     Number       Type             X           Y           Z
 ---------------------------------------------------------------------
      1          6           0       -4.390215   -2.404610    0.283724
      2          6           0       -5.075583   -1.569278   -0.604539
      3          6           0       -4.692176   -0.234187   -0.762896
      4          6           0       -3.614060    0.234590   -0.013760
      5          6           0       -2.911258   -0.572835    0.879226
      6          6           0       -3.312140   -1.904604    1.021471
      7          1           0       -4.694842   -3.440451    0.400482
      8          1           0       -5.913200   -1.954871   -1.178787
      9          1           0       -5.205160    0.434414   -1.443512
     10          1           0       -2.080182   -0.159813    1.437924
     11          1           0       -2.778029   -2.551037    1.712047
     12          7           0       -3.198914    1.646232   -0.172877
     13          8           0       -2.245798    2.035041    0.498714
     14          8           0       -3.834499    2.337139   -0.966172
     15          6           0        2.671148    2.268143    0.423288
     16          6           0        1.868363    1.123623    0.469440
     17          6           0        2.417992   -0.139293    0.229651
     18          6           0        3.780253   -0.221396   -0.054591
     19          6           0        4.606199    0.900333   -0.107753
     20          6           0        4.035100    2.153048    0.135346
     21          1           0        2.235844    3.245245    0.610847
     22          1           0        0.808793    1.209996    0.692814
     23          1           0        1.819542   -1.041741    0.259046
     24          1           0        5.659193    0.782492   -0.332996
     25          1           0        4.660968    3.040179    0.098841
     26          7           0        4.373485   -1.552990   -0.310197
     27          8           0        5.576373   -1.598526   -0.558442
     28          8           0        3.624341   -2.525943   -0.257454
 ---------------------------------------------------------------------

 SCF Done:  E(RHF) =  -868.339774153     A.U. after   16 cycles
 E2 =    -0.2598619736D+01 EUMP2 =    -0.87093839388852D+03

 The electronic state is 1-A.
 Alpha  occ. eigenvalues --  -20.61658 -20.61590 -20.60565 -20.60553 -15.86655
 Alpha  occ. eigenvalues --  -15.85608 -11.31799 -11.30824 -11.28385 -11.28296
 Alpha  occ. eigenvalues --  -11.27986 -11.27366 -11.27362 -11.27289 -11.27259
 Alpha  occ. eigenvalues --  -11.26967 -11.26333 -11.26202  -1.60679  -1.59639
 Alpha  occ. eigenvalues --   -1.40246  -1.39198  -1.19936  -1.18955  -1.09362
 Alpha  occ. eigenvalues --   -1.08355  -1.05309  -1.04335  -0.96242  -0.95229
 Alpha  occ. eigenvalues --   -0.86715  -0.85717  -0.83088  -0.82071  -0.78174
 Alpha  occ. eigenvalues --   -0.77155  -0.72886  -0.71981  -0.71830  -0.71037
 Alpha  occ. eigenvalues --   -0.70959  -0.70027  -0.65593  -0.65301  -0.64594
 Alpha  occ. eigenvalues --   -0.64289  -0.62671  -0.61680  -0.55790  -0.54769
 Alpha  occ. eigenvalues --   -0.53640  -0.53396  -0.52673  -0.52397  -0.49651
 Alpha  occ. eigenvalues --   -0.49603  -0.48597  -0.48567  -0.45691  -0.44638
 Alpha  occ. eigenvalues --   -0.37881  -0.36901  -0.36893  -0.35945
 Alpha virt. eigenvalues --    0.04322   0.05365   0.10745   0.11724   0.15865
 Alpha virt. eigenvalues --    0.16921   0.20209   0.22028   0.25486   0.27243
 Alpha virt. eigenvalues --    0.28790   0.28831   0.30115   0.31218   0.32542

 Mulliken charges:
               1
     1  C   -0.169582
     2  C   -0.217977
     3  C   -0.170317
     4  C    0.159115
     5  C   -0.172855
     6  C   -0.217768
     7  H    0.229041
     8  H    0.226063
     9  H    0.276812
    10  H    0.269866
    11  H    0.226579
    12  N    0.490733
    13  O   -0.471910
    14  O   -0.454854
    15  C   -0.171679
    16  C   -0.225773
    17  C   -0.173207
    18  C    0.158572
    19  C   -0.172203
    20  C   -0.218637
    21  H    0.231749
    22  H    0.238818
    23  H    0.269313
    24  H    0.273982
    25  H    0.222756
    26  N    0.488321
    27  O   -0.461048
    28  O   -0.463913
 Sum of Mulliken charges =  -0.00000

 Dipole moment (field-independent basis, Debye):
    X=             -3.9407    Y=             -0.2380    Z=              1.4106  Tot=              4.1923
 Quadrupole moment (field-independent basis, Debye-Ang):
   XX=           -103.2397   YY=           -108.8663   ZZ=           -103.8931
   XY=             38.5538   XZ=              3.9382   YZ=             -1.2443

 Normal termination of Gaussian 16 at Fri May  7 02:00:01 2021.
