 Gaussian 16, Revision A.03,
 Gaussian 16:  EM64L-G16RevA.03 25-Dec-2016

 -------------
 #p 6-31g* mp2
 -------------

 ------------------------------------------------------
 Input file generated by CHIRIPA (05-May-2021 14:57:25)
 ------------------------------------------------------
 Symbolic Z-matrix:
 Charge =  0 Multiplicity = 1

                         Standard orientation:
 ---------------------------------------------------------------------
 Center     Atomic      Atomic             Coordinates (Angstroms)
 Number     Number       Type             X           Y           Z
 ---------------------------------------------------------------------
      1          6           0        5.490760   -0.122743   -1.444924
      2          6           0        4.664766    1.006047   -1.435548
      3          6           0        3.568167    1.076249   -0.571204
      4          6           0        3.325769   -0.005351    0.274180
      5          6           0        4.130265   -1.143717    0.288280
      6          6           0        5.221349   -1.192137   -0.584497
      7          1           0        6.340482   -0.168817   -2.119643
      8          1           0        4.871587    1.838045   -2.102668
      9          1           0        2.912419    1.938010   -0.543261
     10          1           0        3.898734   -1.957368    0.964878
     11          1           0        5.861120   -2.070039   -0.589611
     12          7           0        2.167768    0.057438    1.193686
     13          8           0        1.975626   -0.908730    1.928695
     14          8           0        1.474196    1.071632    1.161976
     15          6           0       -2.995832    2.454432    0.261151
     16          6           0       -2.319786    1.471026    0.990805
     17          6           0       -2.600216    0.116721    0.786441
     18          6           0       -3.566969   -0.220068   -0.159736
     19          6           0       -4.257545    0.736415   -0.902393
     20          6           0       -3.960853    2.084640   -0.681457
     21          1           0       -2.771670    3.504126    0.426341
     22          1           0       -1.569849    1.755285    1.723497
     23          1           0       -2.091856   -0.665167    1.337477
     24          1           0       -4.999973    0.422211   -1.625921
     25          1           0       -4.487452    2.846209   -1.249567
     26          7           0       -3.872456   -1.650591   -0.384859
     27          8           0       -4.728510   -1.921265   -1.224231
     28          8           0       -3.250059   -2.474074    0.282324
 ---------------------------------------------------------------------

 SCF Done:  E(RHF) =  -868.340054972     A.U. after   16 cycles
 E2 =    -0.2598546182D+01 EUMP2 =    -0.87093860115378D+03

 The electronic state is 1-A.
 Alpha  occ. eigenvalues --  -20.61436 -20.61405 -20.59967 -20.59947 -15.86444
 Alpha  occ. eigenvalues --  -15.85001 -11.31569 -11.30191 -11.28133 -11.28086
 Alpha  occ. eigenvalues --  -11.27813 -11.27087 -11.27053 -11.26795 -11.26574
 Alpha  occ. eigenvalues --  -11.26441 -11.25829 -11.25497  -1.60483  -1.59040
 Alpha  occ. eigenvalues --   -1.40042  -1.38596  -1.19719  -1.18334  -1.09162
 Alpha  occ. eigenvalues --   -1.07775  -1.05088  -1.03673  -0.96038  -0.94639
 Alpha  occ. eigenvalues --   -0.86498  -0.85093  -0.82880  -0.81449  -0.77951
 Alpha  occ. eigenvalues --   -0.76512  -0.72686  -0.71775  -0.71225  -0.70829
 Alpha  occ. eigenvalues --   -0.70362  -0.69460  -0.65379  -0.65093  -0.63973
 Alpha  occ. eigenvalues --   -0.63645  -0.62440  -0.60996  -0.55602  -0.54232
 Alpha  occ. eigenvalues --   -0.53427  -0.53180  -0.52064  -0.51736  -0.49451
 Alpha  occ. eigenvalues --   -0.49414  -0.47988  -0.47965  -0.45493  -0.44039
 Alpha  occ. eigenvalues --   -0.37685  -0.36678  -0.36348  -0.35261
 Alpha virt. eigenvalues --    0.04568   0.05966   0.10981   0.12366   0.16108
 Alpha virt. eigenvalues --    0.17509   0.21126   0.22549   0.27053   0.27959
 Alpha virt. eigenvalues --    0.28639   0.29321   0.30718   0.32012   0.32279

 Mulliken charges:
               1
     1  C   -0.169816
     2  C   -0.218450
     3  C   -0.170230
     4  C    0.158303
     5  C   -0.169648
     6  C   -0.218444
     7  H    0.227167
     8  H    0.223985
     9  H    0.273549
    10  H    0.277570
    11  H    0.225521
    12  N    0.490199
    13  O   -0.457314
    14  O   -0.470436
    15  C   -0.173833
    16  C   -0.216649
    17  C   -0.174191
    18  C    0.157028
    19  C   -0.173928
    20  C   -0.219169
    21  H    0.222226
    22  H    0.241148
    23  H    0.282499
    24  H    0.271369
    25  H    0.218479
    26  N    0.487787
    27  O   -0.464905
    28  O   -0.459815
 Sum of Mulliken charges =  -0.00000

 Dipole moment (field-independent basis, Debye):
    X=              5.6453    Y=              4.7383    Z=             -2.2880  Tot=              7.7172
 Quadrupole moment (field-independent basis, Debye-Ang):
   XX=            -84.5238   YY=           -103.5371   ZZ=           -104.8502
   XY=            -21.4865   XZ=            -10.4656   YZ=             -3.8642

 Normal termination of Gaussian 16 at Thu May  6 14:43:54 2021.
