 Gaussian 16, Revision A.03,
 Gaussian 16:  EM64L-G16RevA.03 25-Dec-2016

 -------------
 #p 6-31g* mp2
 -------------

 ------------------------------------------------------
 Input file generated by CHIRIPA (05-May-2021 14:51:11)
 ------------------------------------------------------
 Symbolic Z-matrix:
 Charge =  0 Multiplicity = 1

                         Standard orientation:
 ---------------------------------------------------------------------
 Center     Atomic      Atomic             Coordinates (Angstroms)
 Number     Number       Type             X           Y           Z
 ---------------------------------------------------------------------
      1          6           0       -3.720264    0.610070    0.404726
      2          6           0       -2.196270    0.570709    0.286918
      3          6           0       -1.530731    1.849397    0.796632
      4          1           0       -4.102909    1.473255   -0.156914
      5          1           0       -3.995699    0.774012    1.455751
      6          1           0       -1.923812    0.405508   -0.763363
      7          1           0       -1.817223   -0.292592    0.848745
      8          1           0       -1.773567    2.016112    1.851069
      9          1           0       -1.880762    2.718179    0.229801
     10          1           0       -0.441397    1.799746    0.703107
     11          6           0       -4.399999   -0.661189   -0.100832
     12          6           0       -5.923993   -0.621828    0.016976
     13          6           0       -6.589532   -1.900516   -0.492738
     14          1           0       -4.124564   -0.825131   -1.151857
     15          1           0       -4.017353   -1.524374    0.460808
     16          1           0       -6.303040    0.241474   -0.544851
     17          1           0       -6.196451   -0.456627    1.067257
     18          1           0       -6.239501   -2.769298    0.074093
     19          1           0       -6.346695   -2.067231   -1.547175
     20          1           0       -7.678865   -1.850864   -0.399213
     21          6           0        3.885281    0.769081   -0.157949
     22          6           0        2.440039    1.048797   -0.571491
     23          6           0        2.105417    2.540699   -0.578698
     24          1           0        4.062324    1.190854    0.840904
     25          1           0        4.563888    1.294699   -0.843960
     26          1           0        1.764383    0.521685    0.114262
     27          1           0        2.266361    0.626141   -1.569396
     28          1           0        2.755670    3.077985   -1.276622
     29          1           0        2.250839    2.972935    0.416603
     30          1           0        1.067451    2.717893   -0.877173
     31          6           0        4.234981   -0.717962   -0.145945
     32          6           0        5.680224   -0.997679    0.267597
     33          6           0        6.014845   -2.489580    0.274804
     34          1           0        3.556374   -1.243581    0.540067
     35          1           0        4.057939   -1.139735   -1.144798
     36          1           0        5.853901   -0.575023    1.265503
     37          1           0        6.355880   -0.470567   -0.418157
     38          1           0        5.869424   -2.921817   -0.720497
     39          1           0        5.364593   -3.026866    0.972728
     40          1           0        7.052812   -2.666775    0.573279
 ---------------------------------------------------------------------

 SCF Done:  E(RHF) =  -470.732743188     A.U. after   11 cycles
 E2 =    -0.1582899051D+01 EUMP2 =    -0.47231564223876D+03

 The electronic state is 1-A.
 Alpha  occ. eigenvalues --  -11.21623 -11.21606 -11.21592 -11.21578 -11.21414
 Alpha  occ. eigenvalues --  -11.21388 -11.21354 -11.21329 -11.21074 -11.21064
 Alpha  occ. eigenvalues --  -11.21035 -11.20978  -1.08446  -1.08407  -1.03576
 Alpha  occ. eigenvalues --   -1.03477  -0.96057  -0.95893  -0.87073  -0.86907
 Alpha  occ. eigenvalues --   -0.79621  -0.79553  -0.78256  -0.78222  -0.65081
 Alpha  occ. eigenvalues --   -0.65044  -0.61003  -0.60913  -0.59703  -0.59067
 Alpha  occ. eigenvalues --   -0.57800  -0.57318  -0.55281  -0.55241  -0.52922
 Alpha  occ. eigenvalues --   -0.52521  -0.52433  -0.52153  -0.49930  -0.49889
 Alpha  occ. eigenvalues --   -0.47936  -0.47861  -0.46636  -0.46607  -0.45795
 Alpha  occ. eigenvalues --   -0.45764  -0.45718  -0.45693  -0.43877  -0.43646
 Alpha virt. eigenvalues --    0.21492   0.23051   0.23460   0.25242   0.26397
 Alpha virt. eigenvalues --    0.26660   0.27152   0.27382   0.27754   0.28928
 Alpha virt. eigenvalues --    0.30217   0.31374   0.31543   0.31919   0.32252

 Mulliken charges:
               1
     1  C   -0.298264
     2  C   -0.299271
     3  C   -0.485607
     4  H    0.149597
     5  H    0.149488
     6  H    0.151971
     7  H    0.151370
     8  H    0.154510
     9  H    0.154256
    10  H    0.172791
    11  C   -0.298219
    12  C   -0.299630
    13  C   -0.475689
    14  H    0.149492
    15  H    0.149563
    16  H    0.151918
    17  H    0.151890
    18  H    0.155149
    19  H    0.155166
    20  H    0.160214
    21  C   -0.297927
    22  C   -0.303391
    23  C   -0.480738
    24  H    0.149743
    25  H    0.149739
    26  H    0.153781
    27  H    0.152305
    28  H    0.156097
    29  H    0.155312
    30  H    0.164287
    31  C   -0.298335
    32  C   -0.299679
    33  C   -0.475710
    34  H    0.149556
    35  H    0.149702
    36  H    0.151962
    37  H    0.151953
    38  H    0.155197
    39  H    0.155180
    40  H    0.160271
 Sum of Mulliken charges =  -0.00000

 Dipole moment (field-independent basis, Debye):
    X=              0.0245    Y=              0.0065    Z=             -0.0069  Tot=              0.0263
 Quadrupole moment (field-independent basis, Debye-Ang):
   XX=            -85.3599   YY=            -86.4481   ZZ=            -83.0319
   XY=             -0.1232   XZ=             -0.4389   YZ=             -0.6941

 Normal termination of Gaussian 16 at Wed May  5 18:14:24 2021.
