 Gaussian 16, Revision A.03,
 Gaussian 16:  EM64L-G16RevA.03 25-Dec-2016

 -------------
 #p 6-31g* mp2
 -------------

 ------------------------------------------------------
 Input file generated by CHIRIPA (05-May-2021 14:57:22)
 ------------------------------------------------------
 Symbolic Z-matrix:
 Charge =  0 Multiplicity = 1

                         Standard orientation:
 ---------------------------------------------------------------------
 Center     Atomic      Atomic             Coordinates (Angstroms)
 Number     Number       Type             X           Y           Z
 ---------------------------------------------------------------------
      1          6           0        2.787953    2.415828    0.348918
      2          6           0        3.152431    1.591448    1.418532
      3          6           0        3.295409    0.212792    1.235739
      4          6           0        3.065171   -0.310242   -0.035762
      5          6           0        2.700883    0.484932   -1.121249
      6          6           0        2.563738    1.860918   -0.915330
      7          1           0        2.679150    3.485764    0.499898
      8          1           0        3.327192    2.019639    2.401464
      9          1           0        3.576560   -0.448513    2.046324
     10          1           0        2.533344    0.029011   -2.089487
     11          1           0        2.280573    2.498721   -1.747838
     12          7           0        3.213448   -1.768350   -0.241518
     13          8           0        3.004975   -2.204594   -1.371503
     14          8           0        3.535333   -2.447361    0.731092
     15          6           0       -2.009551    2.353259   -0.296456
     16          6           0       -1.196396    1.215351   -0.274855
     17          6           0       -1.756867   -0.054807   -0.110173
     18          6           0       -3.140424   -0.150816    0.030691
     19          6           0       -3.977141    0.964037    0.013359
     20          6           0       -3.394884    2.224198   -0.152534
     21          1           0       -1.565703    3.336065   -0.424855
     22          1           0       -0.120222    1.312568   -0.386393
     23          1           0       -1.150779   -0.952391   -0.089750
     24          1           0       -5.046695    0.835375    0.127012
     25          1           0       -4.028846    3.106166   -0.168923
     26          7           0       -3.745301   -1.490183    0.205673
     27          8           0       -4.966942   -1.547961    0.327692
     28          8           0       -2.986306   -2.456841    0.217492
 ---------------------------------------------------------------------

 SCF Done:  E(RHF) =  -868.336528661     A.U. after   16 cycles
 E2 =    -0.2601957360D+01 EUMP2 =    -0.87093848602115D+03

 The electronic state is 1-A.
 Alpha  occ. eigenvalues --  -20.61414 -20.61403 -20.60666 -20.60646 -15.86477
 Alpha  occ. eigenvalues --  -15.85711 -11.32153 -11.31177 -11.28771 -11.28691
 Alpha  occ. eigenvalues --  -11.28544 -11.27842 -11.27760 -11.27744 -11.27697
 Alpha  occ. eigenvalues --  -11.27565 -11.26838 -11.26639  -1.60484  -1.59734
 Alpha  occ. eigenvalues --   -1.40027  -1.39283  -1.20374  -1.19354  -1.09699
 Alpha  occ. eigenvalues --   -1.08750  -1.05800  -1.04756  -0.96468  -0.95568
 Alpha  occ. eigenvalues --   -0.87161  -0.86165  -0.83281  -0.82386  -0.78277
 Alpha  occ. eigenvalues --   -0.77409  -0.72678  -0.71927  -0.71826  -0.71417
 Alpha  occ. eigenvalues --   -0.71060  -0.70511  -0.65985  -0.65753  -0.65005
 Alpha  occ. eigenvalues --   -0.64802  -0.63091  -0.62135  -0.56256  -0.55368
 Alpha  occ. eigenvalues --   -0.54244  -0.53837  -0.53106  -0.52651  -0.49463
 Alpha  occ. eigenvalues --   -0.49420  -0.48696  -0.48677  -0.45360  -0.44666
 Alpha  occ. eigenvalues --   -0.38377  -0.37438  -0.37345  -0.36354
 Alpha virt. eigenvalues --    0.04229   0.05110   0.10156   0.11267   0.15645
 Alpha virt. eigenvalues --    0.16583   0.20331   0.21622   0.26315   0.27287
 Alpha virt. eigenvalues --    0.27643   0.28305   0.30099   0.31253   0.31749

 Mulliken charges:
               1
     1  C   -0.171858
     2  C   -0.216958
     3  C   -0.169206
     4  C    0.158954
     5  C   -0.175961
     6  C   -0.234217
     7  H    0.227439
     8  H    0.228024
     9  H    0.280655
    10  H    0.280365
    11  H    0.226123
    12  N    0.487610
    13  O   -0.457023
    14  O   -0.455355
    15  C   -0.175784
    16  C   -0.228069
    17  C   -0.175261
    18  C    0.159408
    19  C   -0.171900
    20  C   -0.218010
    21  H    0.218699
    22  H    0.236487
    23  H    0.278740
    24  H    0.275580
    25  H    0.222036
    26  N    0.487652
    27  O   -0.461303
    28  O   -0.456868
 Sum of Mulliken charges =  -0.00000

 Dipole moment (field-independent basis, Debye):
    X=              1.9526    Y=              9.6281    Z=              0.2146  Tot=              9.8265
 Quadrupole moment (field-independent basis, Debye-Ang):
   XX=           -117.0856   YY=           -109.6882   ZZ=           -100.9000
   XY=             -1.4284   XZ=              5.6136   YZ=             -0.5286

 Normal termination of Gaussian 16 at Wed May  5 20:57:49 2021.
