 Gaussian 16, Revision A.03,
 Gaussian 16:  EM64L-G16RevA.03 25-Dec-2016

 -------------
 #p 6-31g* mp2
 -------------

 ------------------------------------------------------
 Input file generated by CHIRIPA (05-May-2021 14:51:09)
 ------------------------------------------------------
 Symbolic Z-matrix:
 Charge =  0 Multiplicity = 1

                         Standard orientation:
 ---------------------------------------------------------------------
 Center     Atomic      Atomic             Coordinates (Angstroms)
 Number     Number       Type             X           Y           Z
 ---------------------------------------------------------------------
      1          6           0        2.909972    1.449031    0.081295
      2          6           0        1.456459    1.586014    0.535738
      3          6           0        1.023942    3.043073    0.702179
      4          1           0        3.563953    1.946087    0.810808
      5          1           0        3.041108    1.982406   -0.870393
      6          1           0        1.327776    1.051373    1.485589
      7          1           0        0.805877    1.088408   -0.194842
      8          1           0        1.123843    3.585041   -0.243808
      9          1           0        1.648707    3.547796    1.446171
     10          1           0       -0.018371    3.117787    1.027542
     11          6           0        3.357131   -0.001689   -0.089553
     12          6           0        4.810644   -0.138672   -0.543997
     13          6           0        5.243161   -1.595731   -0.710437
     14          1           0        3.225995   -0.535063    0.862135
     15          1           0        2.703150   -0.498745   -0.819066
     16          1           0        5.461226    0.358934    0.186584
     17          1           0        4.939327    0.395969   -1.493847
     18          1           0        4.618396   -2.100453   -1.454430
     19          1           0        5.143260   -2.137699    0.235550
     20          1           0        6.285474   -1.670444   -1.035800
     21          6           0       -3.453584   -0.181163   -0.427955
     22          6           0       -4.902653    0.122221   -0.045671
     23          6           0       -5.529184    1.209614   -0.919069
     24          1           0       -2.860158    0.740173   -0.350953
     25          1           0       -3.416638   -0.489582   -1.481951
     26          1           0       -4.937031    0.428643    1.007677
     27          1           0       -5.492658   -0.799988   -0.123406
     28          1           0       -5.524242    0.908673   -1.971691
     29          1           0       -4.965458    2.144284   -0.834182
     30          1           0       -6.565067    1.410614   -0.628543
     31          6           0       -2.813520   -1.266179    0.436213
     32          6           0       -1.364450   -1.569563    0.053929
     33          6           0       -0.737918   -2.656957    0.927328
     34          1           0       -2.850466   -0.957761    1.490209
     35          1           0       -3.406945   -2.187516    0.359212
     36          1           0       -0.774445   -0.647355    0.131664
     37          1           0       -1.330072   -1.875985   -0.999418
     38          1           0       -1.301645   -3.591626    0.842440
     39          1           0       -0.742861   -2.356016    1.979949
     40          1           0        0.297965   -2.857957    0.636801
 ---------------------------------------------------------------------

 SCF Done:  E(RHF) =  -470.733281118     A.U. after   11 cycles
 E2 =    -0.1583061855D+01 EUMP2 =    -0.47231634297305D+03

 The electronic state is 1-A.
 Alpha  occ. eigenvalues --  -11.21647 -11.21621 -11.21589 -11.21498 -11.21438
 Alpha  occ. eigenvalues --  -11.21378 -11.21377 -11.21313 -11.21132 -11.21085
 Alpha  occ. eigenvalues --  -11.21062 -11.21012  -1.08471  -1.08391  -1.03576
 Alpha  occ. eigenvalues --   -1.03484  -0.96015  -0.95943  -0.87034  -0.86957
 Alpha  occ. eigenvalues --   -0.79707  -0.79502  -0.78341  -0.78148  -0.65125
 Alpha  occ. eigenvalues --   -0.65004  -0.61008  -0.60861  -0.59408  -0.59286
 Alpha  occ. eigenvalues --   -0.57628  -0.57553  -0.55299  -0.55233  -0.52715
 Alpha  occ. eigenvalues --   -0.52632  -0.52454  -0.52356  -0.49978  -0.49878
 Alpha  occ. eigenvalues --   -0.48155  -0.47758  -0.46808  -0.46504  -0.45998
 Alpha  occ. eigenvalues --   -0.45761  -0.45710  -0.45325  -0.43819  -0.43744
 Alpha virt. eigenvalues --    0.21390   0.23054   0.23933   0.24171   0.25632
 Alpha virt. eigenvalues --    0.26683   0.26965   0.27333   0.28582   0.29142
 Alpha virt. eigenvalues --    0.30723   0.31254   0.31697   0.31804   0.32153

 Mulliken charges:
               1
     1  C   -0.297610
     2  C   -0.306211
     3  C   -0.475349
     4  H    0.149778
     5  H    0.149610
     6  H    0.152170
     7  H    0.157886
     8  H    0.155503
     9  H    0.155535
    10  H    0.159569
    11  C   -0.299216
    12  C   -0.299644
    13  C   -0.475789
    14  H    0.149897
    15  H    0.150234
    16  H    0.152032
    17  H    0.152002
    18  H    0.155186
    19  H    0.155275
    20  H    0.160364
    21  C   -0.298477
    22  C   -0.299594
    23  C   -0.475701
    24  H    0.149229
    25  H    0.149315
    26  H    0.151876
    27  H    0.151998
    28  H    0.155108
    29  H    0.155156
    30  H    0.160221
    31  C   -0.297457
    32  C   -0.309053
    33  C   -0.475478
    34  H    0.149202
    35  H    0.149386
    36  H    0.162280
    37  H    0.150603
    38  H    0.154731
    39  H    0.154550
    40  H    0.160883
 Sum of Mulliken charges =  -0.00000

 Dipole moment (field-independent basis, Debye):
    X=              0.0414    Y=              0.0230    Z=             -0.0022  Tot=              0.0474
 Quadrupole moment (field-independent basis, Debye-Ang):
   XX=            -85.1834   YY=            -85.9282   ZZ=            -83.7158
   XY=              1.1346   XZ=              0.2678   YZ=              0.7140

 Normal termination of Gaussian 16 at Thu May  6 03:44:27 2021.
