 Gaussian 16, Revision A.03,
 Gaussian 16:  EM64L-G16RevA.03 25-Dec-2016

 -------------
 #p 6-31g* mp2
 -------------

 ------------------------------------------------------
 Input file generated by CHIRIPA (05-May-2021 14:53:16)
 ------------------------------------------------------
 Symbolic Z-matrix:
 Charge =  0 Multiplicity = 1

                         Standard orientation:
 ---------------------------------------------------------------------
 Center     Atomic      Atomic             Coordinates (Angstroms)
 Number     Number       Type             X           Y           Z
 ---------------------------------------------------------------------
      1          6           0       -3.832400   -0.520880   -0.407060
      2          6           0       -3.178301   -1.712442    0.293169
      3          6           0       -3.802102   -3.049402   -0.108334
      4          1           0       -4.905972   -0.510901   -0.174061
      5          1           0       -3.749836   -0.653143   -1.494757
      6          1           0       -3.260853   -1.577293    1.379234
      7          1           0       -2.106127   -1.719475    0.058631
      8          1           0       -3.706671   -3.210559   -1.187001
      9          1           0       -4.867959   -3.067569    0.141105
     10          1           0       -3.319459   -3.887558    0.403926
     11          6           0       -3.219649    0.822729   -0.015934
     12          6           0       -3.873748    2.014290   -0.716163
     13          6           0       -3.249948    3.351250   -0.314659
     14          1           0       -3.302214    0.954991    1.071763
     15          1           0       -2.146077    0.812750   -0.248933
     16          1           0       -4.945923    2.021323   -0.481624
     17          1           0       -3.791196    1.879141   -1.802227
     18          1           0       -2.184091    3.369417   -0.564098
     19          1           0       -3.345378    3.512408    0.764008
     20          1           0       -3.732591    4.189406   -0.826919
     21          6           0        0.500234   -0.496851    1.232789
     22          6           0        1.345686    0.505506    1.719628
     23          6           0        2.597036    0.724363    1.135870
     24          6           0        2.972661   -0.081275    0.062024
     25          6           0        2.152728   -1.087867   -0.445691
     26          6           0        0.905739   -1.288941    0.153586
     27          1           0       -0.470152   -0.659958    1.692294
     28          1           0        1.033391    1.122177    2.557623
     29          1           0        3.271332    1.493367    1.492766
     30          1           0        2.491706   -1.686555   -1.282401
     31          1           0        0.251222   -2.068118   -0.226596
     32          7           0        4.295101    0.141007   -0.564189
     33          8           0        4.602669   -0.582302   -1.509103
     34          8           0        4.999021    1.034330   -0.098243
 ---------------------------------------------------------------------

 SCF Done:  E(RHF) =  -669.535098205     A.U. after   15 cycles
 E2 =    -0.2092877085D+01 EUMP2 =    -0.67162797529057D+03

 The electronic state is 1-A.
 Alpha  occ. eigenvalues --  -20.60746 -20.60741 -15.85800 -11.31159 -11.27737
 Alpha  occ. eigenvalues --  -11.27730 -11.27409 -11.26728 -11.26717 -11.22861
 Alpha  occ. eigenvalues --  -11.22321 -11.22260 -11.22196 -11.22072 -11.21618
 Alpha  occ. eigenvalues --   -1.59822  -1.39376  -1.19333  -1.09354  -1.08718
 Alpha  occ. eigenvalues --   -1.04740  -1.04406  -0.96814  -0.95558  -0.87837
 Alpha  occ. eigenvalues --   -0.86141  -0.82394  -0.80533  -0.79171  -0.77445
 Alpha  occ. eigenvalues --   -0.72018  -0.71146  -0.70417  -0.66014  -0.64978
 Alpha  occ. eigenvalues --   -0.64743  -0.62159  -0.61727  -0.60204  -0.58440
 Alpha  occ. eigenvalues --   -0.56084  -0.55219  -0.53514  -0.53248  -0.53056
 Alpha  occ. eigenvalues --   -0.52836  -0.50756  -0.48828  -0.48775  -0.48755
 Alpha  occ. eigenvalues --   -0.47550  -0.46664  -0.46581  -0.44783  -0.44650
 Alpha  occ. eigenvalues --   -0.37269  -0.36345
 Alpha virt. eigenvalues --    0.05071   0.11230   0.16516   0.20054   0.22548
 Alpha virt. eigenvalues --    0.23508   0.24694   0.25741   0.26897   0.27861
 Alpha virt. eigenvalues --    0.29492   0.29981   0.31013   0.31220   0.31511

 Mulliken charges:
               1
     1  C   -0.296841
     2  C   -0.309009
     3  C   -0.476027
     4  H    0.153304
     5  H    0.152892
     6  H    0.150199
     7  H    0.146528
     8  H    0.158016
     9  H    0.160002
    10  H    0.160487
    11  C   -0.304418
    12  C   -0.299909
    13  C   -0.476734
    14  H    0.145318
    15  H    0.153363
    16  H    0.153354
    17  H    0.154572
    18  H    0.157224
    19  H    0.153738
    20  H    0.163189
    21  C   -0.171484
    22  C   -0.220353
    23  C   -0.170825
    24  C    0.158156
    25  C   -0.170895
    26  C   -0.224511
    27  H    0.232766
    28  H    0.223758
    29  H    0.275511
    30  H    0.275484
    31  H    0.226126
    32  N    0.488059
    33  O   -0.460581
    34  O   -0.460457
 Sum of Mulliken charges =  -0.00000

 Dipole moment (field-independent basis, Debye):
    X=             -4.8471    Y=             -0.7444    Z=              2.1385  Tot=              5.3499
 Quadrupole moment (field-independent basis, Debye-Ang):
   XX=           -122.0088   YY=            -93.0423   ZZ=            -92.2430
   XY=             -1.5171   XZ=              6.6967   YZ=              2.4085

 Normal termination of Gaussian 16 at Thu May  6 13:52:39 2021.
