 Gaussian 16, Revision A.03,
 Gaussian 16:  EM64L-G16RevA.03 25-Dec-2016

 -------------
 #p 6-31g* mp2
 -------------

 ------------------------------------------------------
 Input file generated by CHIRIPA (05-May-2021 14:53:13)
 ------------------------------------------------------
 Symbolic Z-matrix:
 Charge =  0 Multiplicity = 1

                         Standard orientation:
 ---------------------------------------------------------------------
 Center     Atomic      Atomic             Coordinates (Angstroms)
 Number     Number       Type             X           Y           Z
 ---------------------------------------------------------------------
      1          6           0       -4.544101   -0.029222   -0.211384
      2          6           0       -5.931726   -0.537760    0.180880
      3          6           0       -6.985505   -0.268791   -0.893828
      4          1           0       -4.598944    1.049657   -0.411275
      5          1           0       -4.238993   -0.506449   -1.152956
      6          1           0       -6.233539   -0.060759    1.122154
      7          1           0       -5.873534   -1.615518    0.380047
      8          1           0       -6.710835   -0.758379   -1.833754
      9          1           0       -7.072886    0.805213   -1.087431
     10          1           0       -7.969929   -0.640441   -0.592753
     11          6           0       -3.479837   -0.290778    0.852880
     12          6           0       -2.092212    0.217760    0.460615
     13          6           0       -1.038433   -0.051209    1.535324
     14          1           0       -3.784945    0.186449    1.794452
     15          1           0       -3.424994   -1.369657    1.052771
     16          1           0       -2.150404    1.295518    0.261449
     17          1           0       -1.790399   -0.259241   -0.480658
     18          1           0       -0.951052   -1.125213    1.728927
     19          1           0       -1.313103    0.438380    2.475250
     20          1           0       -0.054009    0.320441    1.234249
     21          6           0        1.651664    2.146905   -0.532475
     22          6           0        1.298712    0.931527   -1.128127
     23          6           0        2.112673   -0.195266   -0.978613
     24          6           0        3.277691   -0.070470   -0.223333
     25          6           0        3.656434    1.126551    0.382460
     26          6           0        2.827326    2.240373    0.219591
     27          1           0        1.013476    3.017186   -0.653809
     28          1           0        0.386263    0.856008   -1.712745
     29          1           0        1.863331   -1.148428   -1.428866
     30          1           0        4.572170    1.170966    0.959411
     31          1           0        3.103938    3.182968    0.683322
     32          7           0        4.147413   -1.256490   -0.057979
     33          8           0        5.168594   -1.120486    0.612343
     34          8           0        3.791453   -2.299638   -0.601827
 ---------------------------------------------------------------------

 SCF Done:  E(RHF) =  -669.534452676     A.U. after   15 cycles
 E2 =    -0.2093243718D+01 EUMP2 =    -0.67162769639351D+03

 The electronic state is 1-A.
 Alpha  occ. eigenvalues --  -20.60799 -20.60794 -15.85852 -11.31249 -11.27806
 Alpha  occ. eigenvalues --  -11.27781 -11.27531 -11.26841 -11.26778 -11.22228
 Alpha  occ. eigenvalues --  -11.21952 -11.21851 -11.21792 -11.21387 -11.21239
 Alpha  occ. eigenvalues --   -1.59873  -1.39425  -1.19426  -1.08889  -1.08797
 Alpha  occ. eigenvalues --   -1.04833  -1.03929  -0.96343  -0.95636  -0.87358
 Alpha  occ. eigenvalues --   -0.86213  -0.82466  -0.80026  -0.78707  -0.77506
 Alpha  occ. eigenvalues --   -0.72069  -0.71196  -0.70511  -0.65512  -0.65063
 Alpha  occ. eigenvalues --   -0.64817  -0.62174  -0.61330  -0.59785  -0.58037
 Alpha  occ. eigenvalues --   -0.55624  -0.55307  -0.53661  -0.52910  -0.52891
 Alpha  occ. eigenvalues --   -0.52308  -0.50283  -0.48834  -0.48823  -0.48308
 Alpha  occ. eigenvalues --   -0.47072  -0.46231  -0.46167  -0.44824  -0.44177
 Alpha  occ. eigenvalues --   -0.37377  -0.36363
 Alpha virt. eigenvalues --    0.05003   0.11174   0.16444   0.20639   0.22608
 Alpha virt. eigenvalues --    0.24114   0.25571   0.26341   0.27647   0.28027
 Alpha virt. eigenvalues --    0.28486   0.30158   0.31280   0.31832   0.31893

 Mulliken charges:
               1
     1  C   -0.298351
     2  C   -0.299996
     3  C   -0.475912
     4  H    0.147856
     5  H    0.148305
     6  H    0.152664
     7  H    0.153504
     8  H    0.155310
     9  H    0.154672
    10  H    0.161679
    11  C   -0.297959
    12  C   -0.299135
    13  C   -0.484188
    14  H    0.151203
    15  H    0.152662
    16  H    0.145070
    17  H    0.144185
    18  H    0.157545
    19  H    0.154298
    20  H    0.171291
    21  C   -0.171923
    22  C   -0.219676
    23  C   -0.170714
    24  C    0.159655
    25  C   -0.171392
    26  C   -0.217638
    27  H    0.226417
    28  H    0.227183
    29  H    0.275730
    30  H    0.275950
    31  H    0.223937
    32  N    0.488119
    33  O   -0.460178
    34  O   -0.460173
 Sum of Mulliken charges =  -0.00000

 Dipole moment (field-independent basis, Debye):
    X=             -3.0392    Y=              4.1645    Z=             -0.5552  Tot=              5.1854
 Quadrupole moment (field-independent basis, Debye-Ang):
   XX=           -113.7574   YY=            -93.4879   ZZ=            -93.8275
   XY=             16.0802   XZ=              0.0457   YZ=              1.2912

 Normal termination of Gaussian 16 at Thu May  6 18:43:34 2021.
