 Gaussian 16, Revision A.03,
 Gaussian 16:  EM64L-G16RevA.03 25-Dec-2016

 -------------
 #p 6-31g* mp2
 -------------

 ------------------------------------------------------
 Input file generated by CHIRIPA (05-May-2021 14:55:19)
 ------------------------------------------------------
 Symbolic Z-matrix:
 Charge =  0 Multiplicity = 1

                         Standard orientation:
 ---------------------------------------------------------------------
 Center     Atomic      Atomic             Coordinates (Angstroms)
 Number     Number       Type             X           Y           Z
 ---------------------------------------------------------------------
      1          6           0       -4.997322    0.937461    0.493874
      2          6           0       -3.803444    1.641673    0.306092
      3          6           0       -2.620611    0.963958   -0.003998
      4          6           0       -2.668050   -0.424480   -0.119232
      5          6           0       -3.841823   -1.154343    0.062005
      6          6           0       -5.012674   -0.455844    0.371447
      7          1           0       -5.911521    1.471999    0.734508
      8          1           0       -3.788549    2.723755    0.400547
      9          1           0       -1.682483    1.484219   -0.154539
     10          1           0       -3.825345   -2.232768   -0.038723
     11          1           0       -5.938401   -1.005356    0.516740
     12          7           0       -1.422180   -1.152949   -0.447167
     13          8           0       -1.490421   -2.376374   -0.543141
     14          8           0       -0.401016   -0.486703   -0.602020
     15          6           0        3.277549    0.920414   -0.292626
     16          6           0        3.387156    2.314284    0.326324
     17          6           0        2.580714    3.365224   -0.437200
     18          1           0        3.620390    0.961303   -1.335570
     19          1           0        2.220390    0.622236   -0.322579
     20          1           0        4.443922    2.609171    0.356368
     21          1           0        3.044194    2.270032    1.367975
     22          1           0        1.519275    3.097641   -0.455857
     23          1           0        2.926955    3.438706   -1.473211
     24          1           0        2.673244    4.354204    0.022384
     25          6           0        4.078315   -0.141100    0.459498
     26          6           0        3.968708   -1.534969   -0.159452
     27          6           0        4.775150   -2.585910    0.604072
     28          1           0        5.135475    0.157078    0.489451
     29          1           0        3.735473   -0.181988    1.502442
     30          1           0        4.311670   -1.490718   -1.201102
     31          1           0        2.911942   -1.829857   -0.189496
     32          1           0        4.428909   -2.659392    1.640082
     33          1           0        5.836590   -2.318326    0.622729
     34          1           0        4.682619   -3.574889    0.144487
 ---------------------------------------------------------------------

 SCF Done:  E(RHF) =  -669.536364588     A.U. after   15 cycles
 E2 =    -0.2091225391D+01 EUMP2 =    -0.67162758997856D+03

 The electronic state is 1-A.
 Alpha  occ. eigenvalues --  -20.61016 -20.61010 -15.86053 -11.31340 -11.27901
 Alpha  occ. eigenvalues --  -11.27895 -11.27629 -11.26899 -11.26889 -11.20847
 Alpha  occ. eigenvalues --  -11.20585 -11.20341 -11.20280 -11.20119 -11.20065
 Alpha  occ. eigenvalues --   -1.60075  -1.39633  -1.19504  -1.08914  -1.07373
 Alpha  occ. eigenvalues --   -1.04896  -1.02600  -0.95762  -0.95068  -0.86298
 Alpha  occ. eigenvalues --   -0.86099  -0.82600  -0.78650  -0.77662  -0.77126
 Alpha  occ. eigenvalues --   -0.72277  -0.71388  -0.70614  -0.65164  -0.64898
 Alpha  occ. eigenvalues --   -0.63991  -0.62245  -0.60004  -0.58451  -0.56661
 Alpha  occ. eigenvalues --   -0.55401  -0.54363  -0.53229  -0.52987  -0.51817
 Alpha  occ. eigenvalues --   -0.51502  -0.49073  -0.49037  -0.48989  -0.46974
 Alpha  occ. eigenvalues --   -0.45654  -0.45077  -0.44726  -0.44478  -0.42806
 Alpha  occ. eigenvalues --   -0.37481  -0.36496
 Alpha virt. eigenvalues --    0.04871   0.11160   0.16370   0.20885   0.23550
 Alpha virt. eigenvalues --    0.24767   0.26487   0.27446   0.27979   0.28923
 Alpha virt. eigenvalues --    0.29141   0.30659   0.31566   0.32408   0.32811

 Mulliken charges:
               1
     1  C   -0.170479
     2  C   -0.218628
     3  C   -0.170836
     4  C    0.157261
     5  C   -0.170467
     6  C   -0.218607
     7  H    0.226215
     8  H    0.224273
     9  H    0.275687
    10  H    0.275943
    11  H    0.223980
    12  N    0.496465
    13  O   -0.458605
    14  O   -0.468905
    15  C   -0.310921
    16  C   -0.298199
    17  C   -0.473700
    18  H    0.146008
    19  H    0.177852
    20  H    0.148797
    21  H    0.148646
    22  H    0.150729
    23  H    0.155338
    24  H    0.155457
    25  C   -0.296351
    26  C   -0.303829
    27  C   -0.475022
    28  H    0.143678
    29  H    0.146592
    30  H    0.148916
    31  H    0.169784
    32  H    0.153024
    33  H    0.150598
    34  H    0.159307
 Sum of Mulliken charges =  -0.00000

 Dipole moment (field-independent basis, Debye):
    X=             -4.7308    Y=              2.4182    Z=              1.0918  Tot=              5.4240
 Quadrupole moment (field-independent basis, Debye-Ang):
   XX=            -71.3293   YY=            -94.6379   ZZ=            -95.9186
   XY=             -2.2173   XZ=             -3.7398   YZ=             -0.5935

 Normal termination of Gaussian 16 at Thu May  6 01:19:49 2021.
