 Gaussian 16, Revision A.03,
 Gaussian 16:  EM64L-G16RevA.03 25-Dec-2016

 -------------
 #p 6-31g* mp2
 -------------

 ------------------------------------------------------
 Input file generated by CHIRIPA (05-May-2021 14:57:24)
 ------------------------------------------------------
 Symbolic Z-matrix:
 Charge =  0 Multiplicity = 1

                         Standard orientation:
 ---------------------------------------------------------------------
 Center     Atomic      Atomic             Coordinates (Angstroms)
 Number     Number       Type             X           Y           Z
 ---------------------------------------------------------------------
      1          6           0        3.221065   -2.297897    0.598222
      2          6           0        2.393796   -1.341897    1.196730
      3          6           0        2.549330    0.015905    0.902233
      4          6           0        3.546748    0.384100    0.000634
      5          6           0        4.386681   -0.544602   -0.611997
      6          6           0        4.213118   -1.896905   -0.302642
      7          1           0        3.093240   -3.350535    0.832765
      8          1           0        1.622521   -1.650416    1.896727
      9          1           0        1.922742    0.776995    1.351174
     10          1           0        5.146744   -0.206528   -1.305847
     11          1           0        4.857039   -2.637147   -0.768961
     12          7           0        3.720948    1.818634   -0.319001
     13          8           0        4.607089    2.117241   -1.116638
     14          8           0        2.968046    2.617252    0.234159
     15          6           0       -5.701569    1.115653   -0.007173
     16          6           0       -4.697557    1.419166    0.918226
     17          6           0       -3.483750    0.725657    0.901955
     18          6           0       -3.306943   -0.269805   -0.057775
     19          6           0       -4.288072   -0.595321   -0.993036
     20          6           0       -5.493987    0.111149   -0.958173
     21          1           0       -6.641419    1.659422    0.012688
     22          1           0       -4.855992    2.198783    1.657916
     23          1           0       -2.689543    0.940229    1.606663
     24          1           0       -4.100889   -1.377695   -1.718483
     25          1           0       -6.271941   -0.126702   -1.678076
     26          7           0       -2.026116   -1.010852   -0.084841
     27          8           0       -1.895042   -1.883454   -0.940424
     28          8           0       -1.177531   -0.705050    0.750040
 ---------------------------------------------------------------------

 SCF Done:  E(RHF) =  -868.339877533     A.U. after   16 cycles
 E2 =    -0.2598748597D+01 EUMP2 =    -0.87093862612988D+03

 The electronic state is 1-A.
 Alpha  occ. eigenvalues --  -20.61385 -20.61349 -20.59884 -20.59879 -15.86406
 Alpha  occ. eigenvalues --  -15.84924 -11.31527 -11.29996 -11.28071 -11.28064
 Alpha  occ. eigenvalues --  -11.27766 -11.27032 -11.27019 -11.26574 -11.26425
 Alpha  occ. eigenvalues --  -11.26197 -11.25578 -11.25324  -1.60426  -1.58963
 Alpha  occ. eigenvalues --   -1.39991  -1.38525  -1.19676  -1.18125  -1.09116
 Alpha  occ. eigenvalues --   -1.07585  -1.05045  -1.03462  -0.95994  -0.94473
 Alpha  occ. eigenvalues --   -0.86455  -0.84893  -0.82843  -0.81301  -0.77912
 Alpha  occ. eigenvalues --   -0.76384  -0.72650  -0.71725  -0.71157  -0.70786
 Alpha  occ. eigenvalues --   -0.70278  -0.69260  -0.65338  -0.65047  -0.63777
 Alpha  occ. eigenvalues --   -0.63466  -0.62398  -0.60818  -0.55555  -0.54018
 Alpha  occ. eigenvalues --   -0.53383  -0.53136  -0.51832  -0.51562  -0.49389
 Alpha  occ. eigenvalues --   -0.49355  -0.47921  -0.47882  -0.45448  -0.43996
 Alpha  occ. eigenvalues --   -0.37640  -0.36634  -0.36107  -0.35009
 Alpha virt. eigenvalues --    0.04604   0.06118   0.11024   0.12613   0.16148
 Alpha virt. eigenvalues --    0.17689   0.21159   0.22667   0.27092   0.27892
 Alpha virt. eigenvalues --    0.28702   0.29454   0.30790   0.32209   0.32259

 Mulliken charges:
               1
     1  C   -0.171438
     2  C   -0.206165
     3  C   -0.167192
     4  C    0.156370
     5  C   -0.173512
     6  C   -0.218565
     7  H    0.223112
     8  H    0.231887
     9  H    0.273952
    10  H    0.270879
    11  H    0.218767
    12  N    0.488373
    13  O   -0.464313
    14  O   -0.464027
    15  C   -0.169864
    16  C   -0.218216
    17  C   -0.169549
    18  C    0.158225
    19  C   -0.170331
    20  C   -0.218468
    21  H    0.227248
    22  H    0.225351
    23  H    0.274359
    24  H    0.275748
    25  H    0.224639
    26  N    0.491075
    27  O   -0.457885
    28  O   -0.470457
 Sum of Mulliken charges =  -0.00000

 Dipole moment (field-independent basis, Debye):
    X=             -5.6279    Y=             -2.5333    Z=              1.2897  Tot=              6.3051
 Quadrupole moment (field-independent basis, Debye-Ang):
   XX=            -77.5739   YY=           -109.7145   ZZ=           -100.7150
   XY=            -26.2593   XZ=              3.1569   YZ=              3.5222

 Normal termination of Gaussian 16 at Thu May  6 05:05:51 2021.
