 Gaussian 16, Revision A.03,
 Gaussian 16:  EM64L-G16RevA.03 25-Dec-2016

 -------------
 #p 6-31g* mp2
 -------------

 ------------------------------------------------------
 Input file generated by CHIRIPA (05-May-2021 14:57:21)
 ------------------------------------------------------
 Symbolic Z-matrix:
 Charge =  0 Multiplicity = 1

                         Standard orientation:
 ---------------------------------------------------------------------
 Center     Atomic      Atomic             Coordinates (Angstroms)
 Number     Number       Type             X           Y           Z
 ---------------------------------------------------------------------
      1          6           0       -1.535852   -0.215711    0.201013
      2          6           0       -2.173617   -0.261125   -1.043058
      3          6           0       -3.568204   -0.211896   -1.128222
      4          6           0       -4.297289   -0.116893    0.056134
      5          6           0       -3.691065   -0.069674    1.310547
      6          6           0       -2.295273   -0.120299    1.371782
      7          1           0       -0.452036   -0.254495    0.257876
      8          1           0       -1.586389   -0.335218   -1.953947
      9          1           0       -4.087702   -0.245314   -2.078181
     10          1           0       -4.303286    0.004242    2.201131
     11          1           0       -1.802676   -0.084848    2.339323
     12          7           0       -5.774314   -0.064038   -0.021358
     13          8           0       -6.393976    0.019611    1.036781
     14          8           0       -6.284376   -0.107260   -1.138768
     15          6           0        2.907449    2.364760   -0.263453
     16          6           0        4.218817    2.289169    0.217297
     17          6           0        4.863868    1.053893    0.329322
     18          6           0        4.164688   -0.090869   -0.050098
     19          6           0        2.857563   -0.048196   -0.532687
     20          6           0        2.232197    1.197894   -0.636254
     21          1           0        2.414004    3.328553   -0.347191
     22          1           0        4.745668    3.193725    0.507559
     23          1           0        5.878575    0.966571    0.698322
     24          1           0        2.358110   -0.967264   -0.814247
     25          1           0        1.213719    1.253581   -1.009944
     26          7           0        4.837155   -1.404324    0.064020
     27          8           0        4.199447   -2.398201   -0.276823
     28          8           0        5.989209   -1.415063    0.492149
 ---------------------------------------------------------------------

 SCF Done:  E(RHF) =  -868.336934021     A.U. after   16 cycles
 E2 =    -0.2600167505D+01 EUMP2 =    -0.87093710152529D+03

 The electronic state is 1-A.
 Alpha  occ. eigenvalues --  -20.61514 -20.61503 -20.61140 -20.61134 -15.86573
 Alpha  occ. eigenvalues --  -15.86196 -11.32088 -11.31676 -11.28767 -11.28632
 Alpha  occ. eigenvalues --  -11.28412 -11.28268 -11.28228 -11.28071 -11.27799
 Alpha  occ. eigenvalues --  -11.27637 -11.27371 -11.27276  -1.60585  -1.60212
 Alpha  occ. eigenvalues --   -1.40135  -1.39762  -1.20281  -1.19866  -1.09630
 Alpha  occ. eigenvalues --   -1.09259  -1.05726  -1.05280  -0.96441  -0.96071
 Alpha  occ. eigenvalues --   -0.87096  -0.86685  -0.83301  -0.82885  -0.78325
 Alpha  occ. eigenvalues --   -0.77904  -0.72784  -0.72413  -0.71913  -0.71536
 Alpha  occ. eigenvalues --   -0.71368  -0.71020  -0.65931  -0.65744  -0.65519
 Alpha  occ. eigenvalues --   -0.65284  -0.63070  -0.62616  -0.56189  -0.55827
 Alpha  occ. eigenvalues --   -0.53999  -0.53824  -0.53577  -0.53377  -0.49555
 Alpha  occ. eigenvalues --   -0.49533  -0.49182  -0.49160  -0.45508  -0.45142
 Alpha  occ. eigenvalues --   -0.38235  -0.37880  -0.37329  -0.36877
 Alpha virt. eigenvalues --    0.04201   0.04607   0.10321   0.10722   0.15484
 Alpha virt. eigenvalues --    0.16043   0.18637   0.21891   0.25068   0.26585
 Alpha virt. eigenvalues --    0.27472   0.29221   0.30288   0.30542   0.32103

 Mulliken charges:
               1
     1  C   -0.176384
     2  C   -0.220950
     3  C   -0.169842
     4  C    0.159031
     5  C   -0.170202
     6  C   -0.219079
     7  H    0.224154
     8  H    0.220389
     9  H    0.277201
    10  H    0.277499
    11  H    0.226519
    12  N    0.487951
    13  O   -0.458841
    14  O   -0.459247
    15  C   -0.170820
    16  C   -0.218239
    17  C   -0.169391
    18  C    0.159323
    19  C   -0.174688
    20  C   -0.223190
    21  H    0.229420
    22  H    0.227159
    23  H    0.278756
    24  H    0.272862
    25  H    0.219910
    26  N    0.488070
    27  O   -0.460063
    28  O   -0.457307
 Sum of Mulliken charges =  -0.00000

 Dipole moment (field-independent basis, Debye):
    X=              2.9488    Y=              4.5246    Z=             -0.0228  Tot=              5.4008
 Quadrupole moment (field-independent basis, Debye-Ang):
   XX=           -164.7024   YY=           -105.5817   ZZ=            -99.7913
   XY=             22.3398   XZ=             -1.0388   YZ=              1.0363

 Normal termination of Gaussian 16 at Thu May  6 19:29:57 2021.
