 Gaussian 16, Revision A.03,
 Gaussian 16:  EM64L-G16RevA.03 25-Dec-2016

 -------------
 #p 6-31g* mp2
 -------------

 ------------------------------------------------------
 Input file generated by CHIRIPA (05-May-2021 14:57:25)
 ------------------------------------------------------
 Symbolic Z-matrix:
 Charge =  0 Multiplicity = 1

                         Standard orientation:
 ---------------------------------------------------------------------
 Center     Atomic      Atomic             Coordinates (Angstroms)
 Number     Number       Type             X           Y           Z
 ---------------------------------------------------------------------
      1          6           0       -4.675362   -1.719251    0.259855
      2          6           0       -5.293339   -0.468898    0.153825
      3          6           0       -4.530122    0.686022   -0.041647
      4          6           0       -3.145047    0.553384   -0.126874
      5          6           0       -2.499965   -0.678201   -0.025097
      6          6           0       -3.283102   -1.819735    0.170213
      7          1           0       -5.275984   -2.611221    0.411639
      8          1           0       -6.374395   -0.387853    0.223064
      9          1           0       -4.982619    1.666509   -0.127139
     10          1           0       -1.420299   -0.727294   -0.098098
     11          1           0       -2.800455   -2.789464    0.252200
     12          7           0       -2.326520    1.768960   -0.333726
     13          8           0       -1.107968    1.625345   -0.405451
     14          8           0       -2.919008    2.842325   -0.420215
     15          6           0        1.511101   -2.151237    0.032859
     16          6           0        1.383634   -1.073057    0.914790
     17          6           0        2.357601   -0.070964    0.956567
     18          6           0        3.450956   -0.179199    0.098576
     19          6           0        3.606283   -1.241025   -0.791193
     20          6           0        2.620064   -2.231639   -0.815821
     21          1           0        0.749741   -2.925228    0.007066
     22          1           0        0.523465   -1.008015    1.575036
     23          1           0        2.283915    0.774659    1.629552
     24          1           0        4.474980   -1.278449   -1.437245
     25          1           0        2.721677   -3.067820   -1.501765
     26          7           0        4.488536    0.875595    0.133726
     27          8           0        5.442297    0.757096   -0.632392
     28          8           0        4.328386    1.800870    0.926731
 ---------------------------------------------------------------------

 SCF Done:  E(RHF) =  -868.336607953     A.U. after   16 cycles
 E2 =    -0.2601288915D+01 EUMP2 =    -0.87093789686787D+03

 The electronic state is 1-A.
 Alpha  occ. eigenvalues --  -20.61241 -20.61222 -20.60456 -20.60436 -15.86292
 Alpha  occ. eigenvalues --  -15.85506 -11.31787 -11.30999 -11.28393 -11.28329
 Alpha  occ. eigenvalues --  -11.28123 -11.27617 -11.27565 -11.27548 -11.27487
 Alpha  occ. eigenvalues --  -11.27359 -11.26722 -11.26708  -1.60309  -1.59517
 Alpha  occ. eigenvalues --   -1.39859  -1.39067  -1.19973  -1.19216  -1.09337
 Alpha  occ. eigenvalues --   -1.08635  -1.05410  -1.04632  -0.96152  -0.95431
 Alpha  occ. eigenvalues --   -0.86800  -0.86062  -0.82991  -0.82246  -0.78033
 Alpha  occ. eigenvalues --   -0.77231  -0.72504  -0.71735  -0.71641  -0.71084
 Alpha  occ. eigenvalues --   -0.70832  -0.70410  -0.65626  -0.65457  -0.64896
 Alpha  occ. eigenvalues --   -0.64685  -0.62768  -0.61940  -0.55879  -0.55273
 Alpha  occ. eigenvalues --   -0.53716  -0.53562  -0.52892  -0.52729  -0.49271
 Alpha  occ. eigenvalues --   -0.49252  -0.48504  -0.48468  -0.45239  -0.44443
 Alpha  occ. eigenvalues --   -0.37944  -0.37265  -0.37019  -0.36172
 Alpha virt. eigenvalues --    0.04496   0.05298   0.10584   0.11246   0.15989
 Alpha virt. eigenvalues --    0.16709   0.19376   0.22068   0.25537   0.27023
 Alpha virt. eigenvalues --    0.27923   0.29809   0.30053   0.31553   0.32256

 Mulliken charges:
               1
     1  C   -0.170096
     2  C   -0.218426
     3  C   -0.169294
     4  C    0.157510
     5  C   -0.180502
     6  C   -0.220710
     7  H    0.226982
     8  H    0.225861
     9  H    0.278000
    10  H    0.279473
    11  H    0.217733
    12  N    0.487025
    13  O   -0.460701
    14  O   -0.457047
    15  C   -0.174815
    16  C   -0.217070
    17  C   -0.160804
    18  C    0.158795
    19  C   -0.169601
    20  C   -0.217315
    21  H    0.215669
    22  H    0.220442
    23  H    0.280960
    24  H    0.275981
    25  H    0.222025
    26  N    0.488301
    27  O   -0.461429
    28  O   -0.456950
 Sum of Mulliken charges =  -0.00000

 Dipole moment (field-independent basis, Debye):
    X=             -6.5045    Y=             -7.6816    Z=              0.6132  Tot=             10.0842
 Quadrupole moment (field-independent basis, Debye-Ang):
   XX=           -106.5147   YY=           -106.8295   ZZ=           -103.7395
   XY=             -4.1917   XZ=             -4.6701   YZ=              2.6565

 Normal termination of Gaussian 16 at Thu May  6 03:29:33 2021.
