 Gaussian 16, Revision A.03,
 Gaussian 16:  EM64L-G16RevA.03 25-Dec-2016

 -------------
 #p 6-31g* mp2
 -------------

 ------------------------------------------------------
 Input file generated by CHIRIPA (05-May-2021 14:53:14)
 ------------------------------------------------------
 Symbolic Z-matrix:
 Charge =  0 Multiplicity = 1

                         Standard orientation:
 ---------------------------------------------------------------------
 Center     Atomic      Atomic             Coordinates (Angstroms)
 Number     Number       Type             X           Y           Z
 ---------------------------------------------------------------------
      1          6           0        1.913138    0.898769   -0.080524
      2          6           0        2.171194    2.403797   -0.001243
      3          6           0        0.919870    3.199286    0.371826
      4          1           0        1.121728    0.707237   -0.818041
      5          1           0        1.529675    0.548054    0.887644
      6          1           0        2.555363    2.751321   -0.968847
      7          1           0        2.962215    2.591753    0.736031
      8          1           0        0.537343    2.880716    1.346909
      9          1           0        0.128180    3.041191   -0.367656
     10          1           0        1.126974    4.272767    0.422875
     11          6           0        3.154624    0.090014   -0.452488
     12          6           0        2.896568   -1.415013   -0.531768
     13          6           0        4.147892   -2.210502   -0.904838
     14          1           0        3.538087    0.440729   -1.420656
     15          1           0        3.946034    0.281547    0.285029
     16          1           0        2.105547   -1.602969   -1.269043
     17          1           0        2.512399   -1.762537    0.435835
     18          1           0        4.939582   -2.052407   -0.165356
     19          1           0        4.530419   -1.891932   -1.879921
     20          1           0        3.940788   -3.283983   -0.955887
     21          6           0       -0.837262   -1.029785    2.363864
     22          6           0       -1.283915   -2.022074    1.485010
     23          6           0       -1.918150   -1.677099    0.287811
     24          6           0       -2.090031   -0.324029   -0.000193
     25          6           0       -1.656128    0.687770    0.854958
     26          6           0       -1.024465    0.319591    2.046593
     27          1           0       -0.345572   -1.306783    3.291716
     28          1           0       -1.139884   -3.070817    1.728808
     29          1           0       -2.273735   -2.424865   -0.410634
     30          1           0       -1.813966    1.724775    0.584540
     31          1           0       -0.678616    1.092357    2.727229
     32          7           0       -2.760106    0.053463   -1.264669
     33          8           0       -2.899494    1.252641   -1.495279
     34          8           0       -3.133235   -0.856985   -2.001213
 ---------------------------------------------------------------------

 SCF Done:  E(RHF) =  -669.532997746     A.U. after   15 cycles
 E2 =    -0.2096088764D+01 EUMP2 =    -0.67162908650951D+03

 The electronic state is 1-A.
 Alpha  occ. eigenvalues --  -20.60814 -20.60809 -15.85861 -11.31184 -11.27767
 Alpha  occ. eigenvalues --  -11.27686 -11.27510 -11.26788 -11.26728 -11.21879
 Alpha  occ. eigenvalues --  -11.21801 -11.21555 -11.21539 -11.21422 -11.21269
 Alpha  occ. eigenvalues --   -1.59887  -1.39442  -1.19373  -1.08790  -1.08628
 Alpha  occ. eigenvalues --   -1.04788  -1.03793  -0.96264  -0.95611  -0.87294
 Alpha  occ. eigenvalues --   -0.86177  -0.82459  -0.79880  -0.78471  -0.77472
 Alpha  occ. eigenvalues --   -0.72081  -0.71210  -0.70487  -0.65326  -0.65025
 Alpha  occ. eigenvalues --   -0.64762  -0.62179  -0.61198  -0.59613  -0.57859
 Alpha  occ. eigenvalues --   -0.55573  -0.55285  -0.53316  -0.52926  -0.52886
 Alpha  occ. eigenvalues --   -0.52584  -0.50209  -0.48838  -0.48837  -0.48174
 Alpha  occ. eigenvalues --   -0.46893  -0.45935  -0.45908  -0.44844  -0.44011
 Alpha  occ. eigenvalues --   -0.37310  -0.36208
 Alpha virt. eigenvalues --    0.05006   0.11133   0.16407   0.20483   0.22860
 Alpha virt. eigenvalues --    0.24025   0.25795   0.26155   0.27209   0.28073
 Alpha virt. eigenvalues --    0.28929   0.29614   0.31468   0.31619   0.32405

 Mulliken charges:
               1
     1  C   -0.302466
     2  C   -0.298617
     3  C   -0.481883
     4  H    0.152048
     5  H    0.151373
     6  H    0.155759
     7  H    0.150107
     8  H    0.141791
     9  H    0.164506
    10  H    0.163829
    11  C   -0.298260
    12  C   -0.298825
    13  C   -0.475723
    14  H    0.151208
    15  H    0.147293
    16  H    0.154268
    17  H    0.147025
    18  H    0.154118
    19  H    0.157263
    20  H    0.159204
    21  C   -0.170848
    22  C   -0.217272
    23  C   -0.171071
    24  C    0.157439
    25  C   -0.164343
    26  C   -0.221559
    27  H    0.225413
    28  H    0.223563
    29  H    0.275479
    30  H    0.278988
    31  H    0.224041
    32  N    0.487945
    33  O   -0.461558
    34  O   -0.460233
 Sum of Mulliken charges =  -0.00000

 Dipole moment (field-independent basis, Debye):
    X=              2.3167    Y=             -1.3170    Z=              4.3690  Tot=              5.1176
 Quadrupole moment (field-independent basis, Debye-Ang):
   XX=           -106.2351   YY=            -89.7969   ZZ=            -94.2524
   XY=              3.2591   XZ=             -8.9539   YZ=             -0.6771

 Normal termination of Gaussian 16 at Thu May  6 17:05:30 2021.
