 Gaussian 16, Revision A.03,
 Gaussian 16:  EM64L-G16RevA.03 25-Dec-2016

 -------------
 #p 6-31g* mp2
 -------------

 ------------------------------------------------------
 Input file generated by CHIRIPA (05-May-2021 14:53:15)
 ------------------------------------------------------
 Symbolic Z-matrix:
 Charge =  0 Multiplicity = 1

                         Standard orientation:
 ---------------------------------------------------------------------
 Center     Atomic      Atomic             Coordinates (Angstroms)
 Number     Number       Type             X           Y           Z
 ---------------------------------------------------------------------
      1          6           0       -4.790884    0.293460   -0.483000
      2          6           0       -5.491471   -0.991490   -0.040206
      3          6           0       -6.936982   -1.076033   -0.531272
      4          1           0       -5.356933    1.158771   -0.111826
      5          1           0       -4.810602    0.354258   -1.579955
      6          1           0       -5.469220   -1.050529    1.055529
      7          1           0       -4.923583   -1.853843   -0.412315
      8          1           0       -6.974902   -1.042431   -1.624906
      9          1           0       -7.523639   -0.234552   -0.148722
     10          1           0       -7.418832   -2.002414   -0.203404
     11          6           0       -3.345058    0.392571    0.000212
     12          6           0       -2.644471    1.677520   -0.442582
     13          6           0       -1.198961    1.762064    0.048484
     14          1           0       -3.325340    0.331773    1.097167
     15          1           0       -2.779009   -0.472740   -0.370962
     16          1           0       -3.212359    2.539874   -0.070473
     17          1           0       -2.666722    1.736559   -1.538317
     18          1           0       -0.612303    0.920583   -0.334066
     19          1           0       -1.161040    1.728462    1.142118
     20          1           0       -0.717110    2.688445   -0.279384
     21          6           0        1.272671   -0.471639    1.829862
     22          6           0        1.905543    0.761454    1.641514
     23          6           0        2.962347    0.885957    0.734754
     24          6           0        3.362313   -0.248292    0.029917
     25          6           0        2.751819   -1.490542    0.195453
     26          6           0        1.697080   -1.591727    1.107504
     27          1           0        0.452522   -0.559299    2.536309
     28          1           0        1.578057    1.633019    2.201131
     29          1           0        3.469989    1.828499    0.569425
     30          1           0        3.100575   -2.341549   -0.376888
     31          1           0        1.207438   -2.550629    1.251732
     32          7           0        4.480011   -0.128829   -0.932829
     33          8           0        4.813552   -1.143142   -1.541561
     34          8           0        5.001357    0.976858   -1.060467
 ---------------------------------------------------------------------

 SCF Done:  E(RHF) =  -669.534982770     A.U. after   15 cycles
 E2 =    -0.2092087080D+01 EUMP2 =    -0.67162706985059D+03

 The electronic state is 1-A.
 Alpha  occ. eigenvalues --  -20.60742 -20.60737 -15.85796 -11.31153 -11.27732
 Alpha  occ. eigenvalues --  -11.27706 -11.27451 -11.26744 -11.26707 -11.22066
 Alpha  occ. eigenvalues --  -11.22034 -11.21933 -11.21808 -11.21595 -11.21423
 Alpha  occ. eigenvalues --   -1.59818  -1.39372  -1.19332  -1.08910  -1.08724
 Alpha  occ. eigenvalues --   -1.04734  -1.03986  -0.96448  -0.95558  -0.87471
 Alpha  occ. eigenvalues --   -0.86123  -0.82390  -0.80059  -0.78729  -0.77438
 Alpha  occ. eigenvalues --   -0.72014  -0.71142  -0.70435  -0.65536  -0.64981
 Alpha  occ. eigenvalues --   -0.64735  -0.62084  -0.61378  -0.59813  -0.58072
 Alpha  occ. eigenvalues --   -0.55740  -0.55229  -0.53433  -0.53093  -0.52821
 Alpha  occ. eigenvalues --   -0.52566  -0.50377  -0.48772  -0.48769  -0.48360
 Alpha  occ. eigenvalues --   -0.47083  -0.46268  -0.46191  -0.44780  -0.44253
 Alpha  occ. eigenvalues --   -0.37248  -0.36311
 Alpha virt. eigenvalues --    0.05088   0.11273   0.16553   0.20718   0.22527
 Alpha virt. eigenvalues --    0.23957   0.25848   0.26630   0.26976   0.27934
 Alpha virt. eigenvalues --    0.28614   0.30829   0.31072   0.31385   0.31602

 Mulliken charges:
               1
     1  C   -0.298421
     2  C   -0.299748
     3  C   -0.475919
     4  H    0.150536
     5  H    0.151576
     6  H    0.150505
     7  H    0.151465
     8  H    0.156431
     9  H    0.155801
    10  H    0.160811
    11  C   -0.297898
    12  C   -0.300910
    13  C   -0.475380
    14  H    0.144830
    15  H    0.148972
    16  H    0.152145
    17  H    0.155070
    18  H    0.163141
    19  H    0.142957
    20  H    0.160851
    21  C   -0.168657
    22  C   -0.212975
    23  C   -0.172358
    24  C    0.158160
    25  C   -0.171477
    26  C   -0.220110
    27  H    0.225622
    28  H    0.223870
    29  H    0.275448
    30  H    0.275389
    31  H    0.223331
    32  N    0.488118
    33  O   -0.460706
    34  O   -0.460470
 Sum of Mulliken charges =  -0.00000

 Dipole moment (field-independent basis, Debye):
    X=             -3.9907    Y=             -0.4123    Z=              3.3407  Tot=              5.2207
 Quadrupole moment (field-independent basis, Debye-Ang):
   XX=           -122.9338   YY=            -89.7433   ZZ=            -94.3762
   XY=             -0.2390   XZ=             11.1353   YZ=              0.6548

 Normal termination of Gaussian 16 at Thu May  6 18:50:41 2021.
