 Gaussian 16, Revision A.03,
 Gaussian 16:  EM64L-G16RevA.03 25-Dec-2016

 -------------
 #p 6-31g* mp2
 -------------

 ------------------------------------------------------
 Input file generated by CHIRIPA (05-May-2021 14:51:12)
 ------------------------------------------------------
 Symbolic Z-matrix:
 Charge =  0 Multiplicity = 1

                         Standard orientation:
 ---------------------------------------------------------------------
 Center     Atomic      Atomic             Coordinates (Angstroms)
 Number     Number       Type             X           Y           Z
 ---------------------------------------------------------------------
      1          6           0        2.999355   -0.746141   -0.482000
      2          6           0        3.834922    0.501761   -0.194678
      3          6           0        4.895074    0.762698   -1.265090
      4          1           0        3.665848   -1.616021   -0.559730
      5          1           0        2.513527   -0.636103   -1.461416
      6          1           0        4.317926    0.389998    0.784522
      7          1           0        3.166344    1.368740   -0.117433
      8          1           0        4.427155    0.900317   -2.245250
      9          1           0        5.585281   -0.083986   -1.338171
     10          1           0        5.480784    1.659401   -1.039859
     11          6           0        1.935209   -1.020250    0.579218
     12          6           0        1.099642   -2.268153    0.291897
     13          6           0        0.039490   -2.529090    1.362309
     14          1           0        2.421038   -1.130289    1.558635
     15          1           0        1.268716   -0.150371    0.656949
     16          1           0        1.768220   -3.135132    0.214651
     17          1           0        0.616638   -2.156390   -0.687303
     18          1           0       -0.650717   -1.682405    1.435390
     19          1           0        0.507409   -2.666708    2.342469
     20          1           0       -0.546219   -3.425792    1.137078
     21          6           0       -2.995898    0.347812    0.083157
     22          6           0       -3.697513   -0.136897   -1.186007
     23          6           0       -4.752287   -1.207833   -0.906107
     24          1           0       -2.526149   -0.509236    0.584902
     25          1           0       -3.746927    0.744846    0.780088
     26          1           0       -2.945235   -0.531630   -1.880904
     27          1           0       -4.165485    0.721435   -1.684890
     28          1           0       -5.523987   -0.821686   -0.232332
     29          1           0       -4.296805   -2.081870   -0.429459
     30          1           0       -5.241368   -1.540030   -1.827142
     31          6           0       -1.938666    1.418579   -0.180375
     32          6           0       -1.237051    1.903289    1.088788
     33          6           0       -0.182277    2.974224    0.808888
     34          1           0       -1.187637    1.021545   -0.877307
     35          1           0       -2.408415    2.275628   -0.682121
     36          1           0       -0.769080    1.044957    1.587672
     37          1           0       -1.989328    2.298022    1.783685
     38          1           0       -0.637760    3.848262    0.332240
     39          1           0        0.589422    2.588078    0.135113
     40          1           0        0.306804    3.306421    1.729923
 ---------------------------------------------------------------------

 SCF Done:  E(RHF) =  -470.732741919     A.U. after   11 cycles
 E2 =    -0.1585035894D+01 EUMP2 =    -0.47231777781236D+03

 The electronic state is 1-A.
 Alpha  occ. eigenvalues --  -11.21667 -11.21651 -11.21624 -11.21624 -11.21452
 Alpha  occ. eigenvalues --  -11.21443 -11.21383 -11.21378 -11.21139 -11.21133
 Alpha  occ. eigenvalues --  -11.21085 -11.21077  -1.08525  -1.08435  -1.03585
 Alpha  occ. eigenvalues --   -1.03566  -0.96059  -0.95991  -0.87069  -0.87014
 Alpha  occ. eigenvalues --   -0.79671  -0.79612  -0.78353  -0.78236  -0.65481
 Alpha  occ. eigenvalues --   -0.64799  -0.61009  -0.60945  -0.59417  -0.59359
 Alpha  occ. eigenvalues --   -0.57685  -0.57592  -0.55529  -0.55121  -0.52724
 Alpha  occ. eigenvalues --   -0.52712  -0.52478  -0.52413  -0.50146  -0.49819
 Alpha  occ. eigenvalues --   -0.48011  -0.47958  -0.46867  -0.46604  -0.46061
 Alpha  occ. eigenvalues --   -0.45783  -0.45734  -0.45296  -0.43829  -0.43821
 Alpha virt. eigenvalues --    0.18932   0.21968   0.23826   0.24486   0.25680
 Alpha virt. eigenvalues --    0.26055   0.26718   0.28090   0.28993   0.29433
 Alpha virt. eigenvalues --    0.30569   0.31492   0.31713   0.31794   0.32564

 Mulliken charges:
               1
     1  C   -0.297759
     2  C   -0.303087
     3  C   -0.475629
     4  H    0.149971
     5  H    0.148953
     6  H    0.152220
     7  H    0.154873
     8  H    0.155141
     9  H    0.155238
    10  H    0.160538
    11  C   -0.306956
    12  C   -0.299175
    13  C   -0.484613
    14  H    0.149738
    15  H    0.158415
    16  H    0.152530
    17  H    0.151296
    18  H    0.162669
    19  H    0.155901
    20  H    0.160292
    21  C   -0.305963
    22  C   -0.299044
    23  C   -0.475931
    24  H    0.156962
    25  H    0.149874
    26  H    0.151558
    27  H    0.151969
    28  H    0.155250
    29  H    0.155719
    30  H    0.160250
    31  C   -0.298908
    32  C   -0.305813
    33  C   -0.479304
    34  H    0.148991
    35  H    0.150288
    36  H    0.156259
    37  H    0.153087
    38  H    0.155737
    39  H    0.157284
    40  H    0.161181
 Sum of Mulliken charges =  -0.00000

 Dipole moment (field-independent basis, Debye):
    X=             -0.0034    Y=              0.0078    Z=              0.0218  Tot=              0.0234
 Quadrupole moment (field-independent basis, Debye-Ang):
   XX=            -85.0438   YY=            -84.6065   ZZ=            -84.9687
   XY=             -1.7803   XZ=              0.8674   YZ=              0.0430

 Normal termination of Gaussian 16 at Wed May  5 23:10:56 2021.
