 Gaussian 16, Revision A.03,
 Gaussian 16:  EM64L-G16RevA.03 25-Dec-2016

 -------------
 #p 6-31g* mp2
 -------------

 ------------------------------------------------------
 Input file generated by CHIRIPA (05-May-2021 14:51:09)
 ------------------------------------------------------
 Symbolic Z-matrix:
 Charge =  0 Multiplicity = 1

                         Standard orientation:
 ---------------------------------------------------------------------
 Center     Atomic      Atomic             Coordinates (Angstroms)
 Number     Number       Type             X           Y           Z
 ---------------------------------------------------------------------
      1          6           0       -3.595742   -0.176724   -0.371901
      2          6           0       -4.933815    0.389682    0.104260
      3          6           0       -5.816488    0.869319   -1.048403
      4          1           0       -3.063288    0.592549   -0.947797
      5          1           0       -3.783388   -1.010377   -1.062701
      6          1           0       -4.743693    1.221127    0.795033
      7          1           0       -5.463061   -0.380967    0.679252
      8          1           0       -6.035375    0.044981   -1.734811
      9          1           0       -5.311920    1.656178   -1.618372
     10          1           0       -6.767975    1.270323   -0.685457
     11          6           0       -2.702230   -0.660371    0.768911
     12          6           0       -1.364156   -1.226777    0.292750
     13          6           0       -0.481483   -1.706414    1.445413
     14          1           0       -2.514583    0.173282    1.459712
     15          1           0       -3.234684   -1.429645    1.344807
     16          1           0       -0.834911   -0.456129   -0.282241
     17          1           0       -1.554278   -2.058223   -0.398023
     18          1           0       -0.986051   -2.493273    2.015382
     19          1           0       -0.262596   -0.882076    2.131822
     20          1           0        0.470003   -2.107418    1.082467
     21          6           0        2.913878   -0.276797   -0.409816
     22          6           0        4.020467   -1.330996   -0.363881
     23          6           0        3.534662   -2.716910   -0.789359
     24          1           0        2.087570   -0.593161    0.241393
     25          1           0        2.506867   -0.226700   -1.429240
     26          1           0        4.426214   -1.378112    0.654826
     27          1           0        4.844319   -1.011993   -1.015127
     28          1           0        3.148210   -2.692073   -1.813389
     29          1           0        2.727730   -3.060272   -0.133947
     30          1           0        4.341730   -3.455072   -0.749127
     31          6           0        3.384094    1.113892    0.012805
     32          6           0        2.277504    2.168092   -0.033129
     33          6           0        2.763309    3.554005    0.392349
     34          1           0        3.791105    1.063795    1.032231
     35          1           0        4.210402    1.430256   -0.638404
     36          1           0        1.453652    1.849088    0.618116
     37          1           0        1.871757    2.215208   -1.051837
     38          1           0        3.570242    3.897368   -0.263062
     39          1           0        3.149760    3.529168    1.416379
     40          1           0        1.956242    4.292167    0.352118
 ---------------------------------------------------------------------

 SCF Done:  E(RHF) =  -470.732991333     A.U. after   11 cycles
 E2 =    -0.1583551780D+01 EUMP2 =    -0.47231654311339D+03

 The electronic state is 1-A.
 Alpha  occ. eigenvalues --  -11.21630 -11.21601 -11.21596 -11.21592 -11.21406
 Alpha  occ. eigenvalues --  -11.21381 -11.21346 -11.21293 -11.21113 -11.21094
 Alpha  occ. eigenvalues --  -11.21091 -11.21070  -1.08453  -1.08406  -1.03560
 Alpha  occ. eigenvalues --   -1.03523  -0.96017  -0.95969  -0.87034  -0.86989
 Alpha  occ. eigenvalues --   -0.79628  -0.79574  -0.78277  -0.78210  -0.65147
 Alpha  occ. eigenvalues --   -0.64996  -0.60969  -0.60937  -0.59474  -0.59253
 Alpha  occ. eigenvalues --   -0.57643  -0.57561  -0.55369  -0.55194  -0.52743
 Alpha  occ. eigenvalues --   -0.52669  -0.52453  -0.52382  -0.49987  -0.49881
 Alpha  occ. eigenvalues --   -0.48011  -0.47837  -0.46648  -0.46607  -0.45854
 Alpha  occ. eigenvalues --   -0.45752  -0.45681  -0.45617  -0.43786  -0.43752
 Alpha virt. eigenvalues --    0.20544   0.22856   0.23504   0.24185   0.26146
 Alpha virt. eigenvalues --    0.26487   0.27009   0.27391   0.27836   0.29690
 Alpha virt. eigenvalues --    0.30006   0.31368   0.31676   0.31882   0.32253

 Mulliken charges:
               1
     1  C   -0.298314
     2  C   -0.299656
     3  C   -0.475714
     4  H    0.149892
     5  H    0.149564
     6  H    0.151911
     7  H    0.151919
     8  H    0.155187
     9  H    0.155200
    10  H    0.160242
    11  C   -0.298283
    12  C   -0.301744
    13  C   -0.482228
    14  H    0.149307
    15  H    0.149633
    16  H    0.155041
    17  H    0.152230
    18  H    0.156090
    19  H    0.154338
    20  H    0.164622
    21  C   -0.308249
    22  C   -0.299316
    23  C   -0.478897
    24  H    0.161748
    25  H    0.148958
    26  H    0.151816
    27  H    0.151929
    28  H    0.155520
    29  H    0.157078
    30  H    0.160575
    31  C   -0.297605
    32  C   -0.300547
    33  C   -0.475670
    34  H    0.149420
    35  H    0.149549
    36  H    0.151991
    37  H    0.151698
    38  H    0.155423
    39  H    0.155310
    40  H    0.160032
 Sum of Mulliken charges =  -0.00000

 Dipole moment (field-independent basis, Debye):
    X=             -0.0041    Y=             -0.0079    Z=             -0.0031  Tot=              0.0094
 Quadrupole moment (field-independent basis, Debye-Ang):
   XX=            -85.2086   YY=            -85.1542   ZZ=            -84.4610
   XY=              0.5273   XZ=             -0.7692   YZ=             -0.1542

 Normal termination of Gaussian 16 at Wed May  5 15:07:33 2021.
