 Gaussian 16, Revision A.03,
 Gaussian 16:  EM64L-G16RevA.03 25-Dec-2016

 -------------
 #p 6-31g* mp2
 -------------

 ------------------------------------------------------
 Input file generated by CHIRIPA (05-May-2021 14:51:14)
 ------------------------------------------------------
 Symbolic Z-matrix:
 Charge =  0 Multiplicity = 1

                         Standard orientation:
 ---------------------------------------------------------------------
 Center     Atomic      Atomic             Coordinates (Angstroms)
 Number     Number       Type             X           Y           Z
 ---------------------------------------------------------------------
      1          6           0        3.203531    0.770763    0.259518
      2          6           0        4.408626    1.080791   -0.629085
      3          6           0        4.662417    2.581129   -0.778656
      4          1           0        2.311562    1.254818   -0.161229
      5          1           0        3.363191    1.217185    1.250785
      6          1           0        4.247358    0.632739   -1.617952
      7          1           0        5.297793    0.595783   -0.206279
      8          1           0        4.848959    3.039521    0.197910
      9          1           0        3.792555    3.076687   -1.221784
     10          1           0        5.528330    2.780069   -1.417779
     11          6           0        2.937028   -0.725023    0.418666
     12          6           0        1.731934   -1.035052    1.307268
     13          6           0        1.478142   -2.535389    1.456839
     14          1           0        2.777368   -1.171446   -0.572602
     15          1           0        3.828997   -1.209078    0.839412
     16          1           0        0.842767   -0.550043    0.884462
     17          1           0        1.893201   -0.587000    2.296135
     18          1           0        2.348004   -3.030947    1.899967
     19          1           0        1.291601   -2.993781    0.480273
     20          1           0        0.612229   -2.734330    2.095962
     21          6           0       -2.948147   -0.600003   -0.824305
     22          6           0       -1.567049   -1.238260   -0.672045
     23          6           0       -1.337686   -2.391347   -1.649581
     24          1           0       -3.718765   -1.368510   -0.674336
     25          1           0       -3.065057   -0.237045   -1.854833
     26          1           0       -1.452250   -1.598669    0.358266
     27          1           0       -0.799632   -0.468105   -0.822205
     28          1           0       -1.425288   -2.042876   -2.683745
     29          1           0       -2.081615   -3.179864   -1.496565
     30          1           0       -0.344287   -2.833048   -1.523411
     31          6           0       -3.192412    0.554264    0.146122
     32          6           0       -4.573511    1.192520   -0.006138
     33          6           0       -4.802873    2.345608    0.971398
     34          1           0       -3.075502    0.191305    1.176651
     35          1           0       -2.421794    1.322770   -0.003848
     36          1           0       -5.340927    0.422365    0.144022
     37          1           0       -4.688309    1.552930   -1.036449
     38          1           0       -4.058945    3.134124    0.818383
     39          1           0       -4.715270    1.997136    2.005561
     40          1           0       -5.796273    2.787308    0.845229
 ---------------------------------------------------------------------

 SCF Done:  E(RHF) =  -470.732262379     A.U. after   11 cycles
 E2 =    -0.1584201081D+01 EUMP2 =    -0.47231646345967D+03

 The electronic state is 1-A.
 Alpha  occ. eigenvalues --  -11.21636 -11.21630 -11.21590 -11.21443 -11.21436
 Alpha  occ. eigenvalues --  -11.21383 -11.21374 -11.21305 -11.21128 -11.21090
 Alpha  occ. eigenvalues --  -11.21067 -11.21023  -1.08491  -1.08373  -1.03626
 Alpha  occ. eigenvalues --   -1.03437  -0.96050  -0.95920  -0.87052  -0.86952
 Alpha  occ. eigenvalues --   -0.79750  -0.79475  -0.78363  -0.78126  -0.65115
 Alpha  occ. eigenvalues --   -0.65032  -0.61016  -0.60971  -0.59387  -0.59253
 Alpha  occ. eigenvalues --   -0.57631  -0.57555  -0.55330  -0.55174  -0.52731
 Alpha  occ. eigenvalues --   -0.52638  -0.52483  -0.52332  -0.49981  -0.49886
 Alpha  occ. eigenvalues --   -0.48136  -0.47819  -0.46738  -0.46531  -0.46005
 Alpha  occ. eigenvalues --   -0.45751  -0.45709  -0.45294  -0.43809  -0.43741
 Alpha virt. eigenvalues --    0.20496   0.23134   0.23329   0.25232   0.25322
 Alpha virt. eigenvalues --    0.26036   0.26538   0.27738   0.28537   0.29216
 Alpha virt. eigenvalues --    0.29735   0.31329   0.31445   0.31982   0.32578

 Mulliken charges:
               1
     1  C   -0.298100
     2  C   -0.299615
     3  C   -0.475651
     4  H    0.148602
     5  H    0.149696
     6  H    0.151830
     7  H    0.152040
     8  H    0.155211
     9  H    0.154911
    10  H    0.160220
    11  C   -0.298244
    12  C   -0.306899
    13  C   -0.478126
    14  H    0.148691
    15  H    0.149370
    16  H    0.161698
    17  H    0.150940
    18  H    0.154887
    19  H    0.157509
    20  H    0.159123
    21  C   -0.297540
    22  C   -0.304478
    23  C   -0.478332
    24  H    0.149789
    25  H    0.149360
    26  H    0.156913
    27  H    0.153085
    28  H    0.155093
    29  H    0.155794
    30  H    0.162289
    31  C   -0.298591
    32  C   -0.299589
    33  C   -0.475738
    34  H    0.149671
    35  H    0.149264
    36  H    0.152064
    37  H    0.151968
    38  H    0.155254
    39  H    0.155287
    40  H    0.160348
 Sum of Mulliken charges =  -0.00000

 Dipole moment (field-independent basis, Debye):
    X=             -0.0532    Y=             -0.0045    Z=             -0.0054  Tot=              0.0537
 Quadrupole moment (field-independent basis, Debye-Ang):
   XX=            -84.5344   YY=            -86.2066   ZZ=            -84.1534
   XY=              0.2409   XZ=              0.4592   YZ=             -0.7758

 Normal termination of Gaussian 16 at Thu May  6 02:26:37 2021.
