 Gaussian 16, Revision A.03,
 Gaussian 16:  EM64L-G16RevA.03 25-Dec-2016

 -------------
 #p 6-31g* mp2
 -------------

 ------------------------------------------------------
 Input file generated by CHIRIPA (05-May-2021 14:53:15)
 ------------------------------------------------------
 Symbolic Z-matrix:
 Charge =  0 Multiplicity = 1

                         Standard orientation:
 ---------------------------------------------------------------------
 Center     Atomic      Atomic             Coordinates (Angstroms)
 Number     Number       Type             X           Y           Z
 ---------------------------------------------------------------------
      1          6           0        3.966845   -0.748713   -0.095160
      2          6           0        5.169206   -1.409879    0.579504
      3          6           0        5.153810   -2.933585    0.453497
      4          1           0        3.042543   -1.145288    0.346812
      5          1           0        3.950955   -1.029576   -1.157356
      6          1           0        5.183607   -1.126736    1.639805
      7          1           0        6.090756   -1.011543    0.136006
      8          1           0        5.163344   -3.233174   -0.599478
      9          1           0        4.251040   -3.349022    0.912865
     10          1           0        6.022219   -3.385673    0.942724
     11          6           0        3.968095    0.774421    0.022269
     12          6           0        2.765734    1.435587   -0.652396
     13          6           0        2.781130    2.959293   -0.526389
     14          1           0        3.983985    1.055284    1.084464
     15          1           0        4.892397    1.170996   -0.419704
     16          1           0        1.844184    1.037251   -0.208898
     17          1           0        2.751333    1.152445   -1.712697
     18          1           0        3.683900    3.374730   -0.985757
     19          1           0        2.771597    3.258882    0.526586
     20          1           0        1.912721    3.411381   -1.015616
     21          6           0       -1.246159    1.678214    0.312236
     22          6           0       -2.382188    1.742509    1.125761
     23          6           0       -3.415306    0.812350    0.977374
     24          6           0       -3.278769   -0.173257    0.001040
     25          6           0       -2.159349   -0.263573   -0.824813
     26          6           0       -1.138555    0.677144   -0.658743
     27          1           0       -0.448394    2.404884    0.434375
     28          1           0       -2.468468    2.518864    1.880661
     29          1           0       -4.305756    0.838955    1.593662
     30          1           0       -2.101925   -1.048967   -1.568638
     31          1           0       -0.257448    0.624782   -1.291954
     32          7           0       -4.365962   -1.163563   -0.165411
     33          8           0       -4.221539   -2.022185   -1.032904
     34          8           0       -5.341939   -1.062389    0.574771
 ---------------------------------------------------------------------

 SCF Done:  E(RHF) =  -669.535310741     A.U. after   15 cycles
 E2 =    -0.2092066514D+01 EUMP2 =    -0.67162737725511D+03

 The electronic state is 1-A.
 Alpha  occ. eigenvalues --  -20.60737 -20.60732 -15.85790 -11.31152 -11.27720
 Alpha  occ. eigenvalues --  -11.27703 -11.27430 -11.26730 -11.26667 -11.22805
 Alpha  occ. eigenvalues --  -11.22308 -11.22263 -11.22138 -11.22055 -11.21474
 Alpha  occ. eigenvalues --   -1.59813  -1.39366  -1.19319  -1.09272  -1.08712
 Alpha  occ. eigenvalues --   -1.04723  -1.04376  -0.96805  -0.95549  -0.87821
 Alpha  occ. eigenvalues --   -0.86123  -0.82379  -0.80496  -0.79039  -0.77426
 Alpha  occ. eigenvalues --   -0.72008  -0.71136  -0.70435  -0.65923  -0.64967
 Alpha  occ. eigenvalues --   -0.64730  -0.62123  -0.61719  -0.60204  -0.58402
 Alpha  occ. eigenvalues --   -0.56086  -0.55190  -0.53521  -0.53234  -0.53047
 Alpha  occ. eigenvalues --   -0.52807  -0.50738  -0.48847  -0.48764  -0.48682
 Alpha  occ. eigenvalues --   -0.47507  -0.46567  -0.46460  -0.44773  -0.44608
 Alpha  occ. eigenvalues --   -0.37288  -0.36317
 Alpha virt. eigenvalues --    0.05091   0.11211   0.16583   0.19534   0.22494
 Alpha virt. eigenvalues --    0.23807   0.25551   0.25844   0.26457   0.28031
 Alpha virt. eigenvalues --    0.29589   0.30267   0.30744   0.31136   0.31529

 Mulliken charges:
               1
     1  C   -0.299893
     2  C   -0.300271
     3  C   -0.476382
     4  H    0.150736
     5  H    0.149937
     6  H    0.152897
     7  H    0.152934
     8  H    0.155922
     9  H    0.156640
    10  H    0.162168
    11  C   -0.297289
    12  C   -0.309840
    13  C   -0.479324
    14  H    0.151296
    15  H    0.152808
    16  H    0.149689
    17  H    0.153026
    18  H    0.162694
    19  H    0.156056
    20  H    0.156020
    21  C   -0.175622
    22  C   -0.219066
    23  C   -0.171032
    24  C    0.158427
    25  C   -0.171942
    26  C   -0.222591
    27  H    0.230699
    28  H    0.223369
    29  H    0.275405
    30  H    0.275653
    31  H    0.229814
    32  N    0.488063
    33  O   -0.460445
    34  O   -0.460557
 Sum of Mulliken charges =  -0.00000

 Dipole moment (field-independent basis, Debye):
    X=              4.0595    Y=              3.4536    Z=              0.6038  Tot=              5.3639
 Quadrupole moment (field-independent basis, Debye-Ang):
   XX=           -117.9625   YY=            -96.6569   ZZ=            -91.6529
   XY=            -13.3058   XZ=             -4.5743   YZ=              1.7350

 Normal termination of Gaussian 16 at Thu May  6 02:41:34 2021.
