 Gaussian 16, Revision A.03,
 Gaussian 16:  EM64L-G16RevA.03 25-Dec-2016

 -------------
 #p 6-31g* mp2
 -------------

 ------------------------------------------------------
 Input file generated by CHIRIPA (05-May-2021 14:51:13)
 ------------------------------------------------------
 Symbolic Z-matrix:
 Charge =  0 Multiplicity = 1

                         Standard orientation:
 ---------------------------------------------------------------------
 Center     Atomic      Atomic             Coordinates (Angstroms)
 Number     Number       Type             X           Y           Z
 ---------------------------------------------------------------------
      1          6           0       -3.398194    0.039518   -0.116437
      2          6           0       -2.335399   -0.104554    0.973377
      3          6           0       -0.955013    0.371194    0.519514
      4          1           0       -3.085442   -0.530047   -1.002285
      5          1           0       -3.455631    1.092274   -0.425954
      6          1           0       -2.280956   -1.156492    1.281724
      7          1           0       -2.650809    0.465264    1.856802
      8          1           0       -0.987053    1.426736    0.230715
      9          1           0       -0.615098   -0.204235   -0.347631
     10          1           0       -0.210553    0.259269    1.313940
     11          6           0       -4.783487   -0.431952    0.322207
     12          6           0       -5.846282   -0.287879   -0.767607
     13          6           0       -7.226668   -0.763627   -0.313744
     14          1           0       -4.726050   -1.484707    0.631725
     15          1           0       -5.096239    0.137614    1.208055
     16          1           0       -5.530872   -0.857697   -1.651032
     17          1           0       -5.900725    0.764059   -1.075954
     18          1           0       -7.566583   -0.188198    0.553401
     19          1           0       -7.194628   -1.819169   -0.024945
     20          1           0       -7.971128   -0.651702   -1.108170
     21          6           0        3.850556    0.842592   -0.431359
     22          6           0        2.790675    1.580938    0.386859
     23          6           0        2.319937    2.872090   -0.283310
     24          1           0        4.709677    1.508113   -0.592415
     25          1           0        3.442284    0.613106   -1.425364
     26          1           0        3.200346    1.807741    1.379506
     27          1           0        1.934059    0.913516    0.546151
     28          1           0        1.886252    2.660131   -1.265955
     29          1           0        3.159735    3.559436   -0.427865
     30          1           0        1.562477    3.383766    0.318605
     31          6           0        4.331125   -0.450159    0.225588
     32          6           0        5.391006   -1.188505   -0.592629
     33          6           0        5.861744   -2.479657    0.077539
     34          1           0        4.739397   -0.220672    1.219593
     35          1           0        3.472004   -1.115679    0.386646
     36          1           0        6.247622   -0.521083   -0.751921
     37          1           0        4.981335   -1.415307   -1.585276
     38          1           0        5.021947   -3.167002    0.222095
     39          1           0        6.295429   -2.267698    1.060185
     40          1           0        6.619204   -2.991333   -0.524375
 ---------------------------------------------------------------------

 SCF Done:  E(RHF) =  -470.732932392     A.U. after   11 cycles
 E2 =    -0.1582813181D+01 EUMP2 =    -0.47231574557301D+03

 The electronic state is 1-A.
 Alpha  occ. eigenvalues --  -11.21635 -11.21619 -11.21562 -11.21431 -11.21420
 Alpha  occ. eigenvalues --  -11.21371 -11.21336 -11.21266 -11.21122 -11.21085
 Alpha  occ. eigenvalues --  -11.21044 -11.20975  -1.08460  -1.08351  -1.03575
 Alpha  occ. eigenvalues --   -1.03439  -0.96033  -0.95894  -0.87047  -0.86922
 Alpha  occ. eigenvalues --   -0.79687  -0.79470  -0.78278  -0.78155  -0.65088
 Alpha  occ. eigenvalues --   -0.64990  -0.60961  -0.60878  -0.59453  -0.59211
 Alpha  occ. eigenvalues --   -0.57631  -0.57514  -0.55316  -0.55189  -0.52766
 Alpha  occ. eigenvalues --   -0.52590  -0.52438  -0.52324  -0.49972  -0.49826
 Alpha  occ. eigenvalues --   -0.47951  -0.47821  -0.46662  -0.46540  -0.45831
 Alpha  occ. eigenvalues --   -0.45736  -0.45704  -0.45630  -0.43767  -0.43665
 Alpha virt. eigenvalues --    0.21941   0.22981   0.23668   0.24736   0.26207
 Alpha virt. eigenvalues --    0.26567   0.27163   0.27421   0.27825   0.29054
 Alpha virt. eigenvalues --    0.30606   0.31014   0.31673   0.31945   0.32284

 Mulliken charges:
               1
     1  C   -0.298672
     2  C   -0.300083
     3  C   -0.478542
     4  H    0.149530
     5  H    0.149676
     6  H    0.151945
     7  H    0.152194
     8  H    0.157719
     9  H    0.154502
    10  H    0.161992
    11  C   -0.298329
    12  C   -0.299628
    13  C   -0.475716
    14  H    0.149543
    15  H    0.149733
    16  H    0.151921
    17  H    0.151997
    18  H    0.155223
    19  H    0.155193
    20  H    0.160318
    21  C   -0.297426
    22  C   -0.309403
    23  C   -0.474851
    24  H    0.149040
    25  H    0.149047
    26  H    0.150420
    27  H    0.164733
    28  H    0.154959
    29  H    0.154351
    30  H    0.159618
    31  C   -0.298301
    32  C   -0.299542
    33  C   -0.475657
    34  H    0.149280
    35  H    0.149330
    36  H    0.151907
    37  H    0.151767
    38  H    0.155011
    39  H    0.155103
    40  H    0.160097
 Sum of Mulliken charges =  -0.00000

 Dipole moment (field-independent basis, Debye):
    X=             -0.0547    Y=             -0.0068    Z=              0.0089  Tot=              0.0558
 Quadrupole moment (field-independent basis, Debye-Ang):
   XX=            -85.7334   YY=            -84.7146   ZZ=            -84.6214
   XY=              0.2127   XZ=              0.3189   YZ=              0.9855

 Normal termination of Gaussian 16 at Thu May  6 02:22:19 2021.
