 Gaussian 16, Revision A.03,
 Gaussian 16:  EM64L-G16RevA.03 25-Dec-2016

 -------------
 #p 6-31g* mp2
 -------------

 ------------------------------------------------------
 Input file generated by CHIRIPA (05-May-2021 14:53:14)
 ------------------------------------------------------
 Symbolic Z-matrix:
 Charge =  0 Multiplicity = 1

                         Standard orientation:
 ---------------------------------------------------------------------
 Center     Atomic      Atomic             Coordinates (Angstroms)
 Number     Number       Type             X           Y           Z
 ---------------------------------------------------------------------
      1          6           0        3.187609   -0.502788    0.362435
      2          6           0        2.711816   -1.911843    0.717639
      3          6           0        1.234941   -1.955484    1.110993
      4          1           0        3.015147    0.162517    1.219506
      5          1           0        2.575653   -0.113930   -0.463214
      6          1           0        3.325391   -2.298464    1.541451
      7          1           0        2.885607   -2.573913   -0.140310
      8          1           0        0.606797   -1.594876    0.290019
      9          1           0        1.049080   -1.317862    1.981335
     10          1           0        0.915922   -2.972153    1.360933
     11          6           0        4.662000   -0.442906   -0.032930
     12          6           0        5.137792    0.966150   -0.388134
     13          6           0        6.614668    1.009790   -0.781488
     14          1           0        5.273955   -0.831764    0.792718
     15          1           0        4.834462   -1.108211   -0.890001
     16          1           0        4.964001    1.628220    0.469814
     17          1           0        4.524217    1.352771   -1.211946
     18          1           0        6.800529    0.372168   -1.651830
     19          1           0        7.242812    0.649182    0.039486
     20          1           0        6.933686    2.026460   -1.031429
     21          6           0       -4.415580   -1.701595   -0.634847
     22          6           0       -3.041629   -1.680090   -0.896222
     23          6           0       -2.284082   -0.538057   -0.619762
     24          6           0       -2.935805    0.569629   -0.079782
     25          6           0       -4.303083    0.579050    0.191793
     26          6           0       -5.040819   -0.573945   -0.092629
     27          1           0       -4.996366   -2.593012   -0.852701
     28          1           0       -2.553397   -2.554375   -1.317293
     29          1           0       -1.218982   -0.494190   -0.812262
     30          1           0       -4.761726    1.465999    0.611776
     31          1           0       -6.107697   -0.587793    0.111390
     32          7           0       -2.144311    1.784451    0.217109
     33          8           0       -2.742161    2.747305    0.692632
     34          8           0       -0.941074    1.750770   -0.031332
 ---------------------------------------------------------------------

 SCF Done:  E(RHF) =  -669.535334482     A.U. after   15 cycles
 E2 =    -0.2091265084D+01 EUMP2 =    -0.67162659956671D+03

 The electronic state is 1-A.
 Alpha  occ. eigenvalues --  -20.60755 -20.60749 -15.85806 -11.31168 -11.27742
 Alpha  occ. eigenvalues --  -11.27730 -11.27486 -11.26761 -11.26749 -11.21510
 Alpha  occ. eigenvalues --  -11.21199 -11.21166 -11.21072 -11.20989 -11.20748
 Alpha  occ. eigenvalues --   -1.59829  -1.39382  -1.19344  -1.08740  -1.08148
 Alpha  occ. eigenvalues --   -1.04750  -1.03320  -0.95781  -0.95573  -0.86805
 Alpha  occ. eigenvalues --   -0.86146  -0.82407  -0.79379  -0.77922  -0.77450
 Alpha  occ. eigenvalues --   -0.72026  -0.71150  -0.70466  -0.64999  -0.64831
 Alpha  occ. eigenvalues --   -0.64719  -0.62136  -0.60714  -0.59144  -0.57370
 Alpha  occ. eigenvalues --   -0.55299  -0.55040  -0.53082  -0.52876  -0.52497
 Alpha  occ. eigenvalues --   -0.52156  -0.49725  -0.48785  -0.48780  -0.47685
 Alpha  occ. eigenvalues --   -0.46400  -0.45471  -0.45385  -0.44783  -0.43548
 Alpha  occ. eigenvalues --   -0.37325  -0.36339
 Alpha virt. eigenvalues --    0.05060   0.11274   0.16563   0.20526   0.23099
 Alpha virt. eigenvalues --    0.24148   0.25884   0.27228   0.27724   0.28154
 Alpha virt. eigenvalues --    0.29276   0.30681   0.31538   0.31898   0.32152

 Mulliken charges:
               1
     1  C   -0.298561
     2  C   -0.299989
     3  C   -0.475017
     4  H    0.155340
     5  H    0.153467
     6  H    0.152264
     7  H    0.148563
     8  H    0.146096
     9  H    0.162365
    10  H    0.156528
    11  C   -0.298537
    12  C   -0.299767
    13  C   -0.475682
    14  H    0.148177
    15  H    0.147047
    16  H    0.154547
    17  H    0.154343
    18  H    0.153592
    19  H    0.154129
    20  H    0.160613
    21  C   -0.170801
    22  C   -0.219634
    23  C   -0.172758
    24  C    0.158311
    25  C   -0.170802
    26  C   -0.218569
    27  H    0.225538
    28  H    0.223570
    29  H    0.280252
    30  H    0.275514
    31  H    0.223365
    32  N    0.487636
    33  O   -0.460568
    34  O   -0.460574
 Sum of Mulliken charges =  -0.00000

 Dipole moment (field-independent basis, Debye):
    X=             -2.7935    Y=             -4.1813    Z=             -0.9896  Tot=              5.1250
 Quadrupole moment (field-independent basis, Debye-Ang):
   XX=            -76.3430   YY=            -99.4191   ZZ=            -93.8956
   XY=              9.1490   XZ=              2.4703   YZ=              0.9098

 Normal termination of Gaussian 16 at Wed May  5 18:38:51 2021.
