 Gaussian 16, Revision A.03,
 Gaussian 16:  EM64L-G16RevA.03 25-Dec-2016

 -------------
 #p 6-31g* mp2
 -------------

 ------------------------------------------------------
 Input file generated by CHIRIPA (05-May-2021 14:51:12)
 ------------------------------------------------------
 Symbolic Z-matrix:
 Charge =  0 Multiplicity = 1

                         Standard orientation:
 ---------------------------------------------------------------------
 Center     Atomic      Atomic             Coordinates (Angstroms)
 Number     Number       Type             X           Y           Z
 ---------------------------------------------------------------------
      1          6           0        4.470476   -0.341847    0.065044
      2          6           0        4.408118   -1.865832   -0.042504
      3          6           0        5.776993   -2.526625    0.122815
      4          1           0        5.160523    0.045232   -0.697157
      5          1           0        4.895892   -0.067154    1.040215
      6          1           0        3.981664   -2.137555   -1.016629
      7          1           0        3.717992   -2.249314    0.719916
      8          1           0        6.206082   -2.284523    1.100501
      9          1           0        6.471252   -2.172129   -0.645911
     10          1           0        5.709239   -3.616031    0.042416
     11          6           0        3.109791    0.333167   -0.098116
     12          6           0        3.172148    1.857152    0.009431
     13          6           0        1.803274    2.517945   -0.155887
     14          1           0        2.684375    0.058474   -1.073288
     15          1           0        2.419744   -0.053912    0.664084
     16          1           0        3.862275    2.240634   -0.752989
     17          1           0        3.598603    2.128874    0.983556
     18          1           0        1.109015    2.163449    0.612838
     19          1           0        1.374185    2.275843   -1.133574
     20          1           0        1.871028    3.607351   -0.075489
     21          6           0       -3.320901    0.502359   -0.322919
     22          6           0       -2.921589    1.670811    0.578887
     23          6           0       -1.982678    2.658567   -0.114349
     24          1           0       -2.414723   -0.022418   -0.655176
     25          1           0       -3.804133    0.895401   -1.228127
     26          1           0       -2.440497    1.275616    1.482761
     27          1           0       -3.828835    2.192752    0.909191
     28          1           0       -2.457522    3.080415   -1.006072
     29          1           0       -1.061296    2.158068   -0.429243
     30          1           0       -1.709949    3.485835    0.548302
     31          6           0       -4.259366   -0.493679    0.355992
     32          6           0       -4.658678   -1.662131   -0.545815
     33          6           0       -5.597590   -2.649887    0.147422
     34          1           0       -3.776135   -0.886720    1.261200
     35          1           0       -5.165544    0.031098    0.688249
     36          1           0       -3.751433   -2.184071   -0.876118
     37          1           0       -5.139769   -1.266935   -1.449688
     38          1           0       -6.518971   -2.149388    0.462316
     39          1           0       -5.122745   -3.071734    1.039144
     40          1           0       -5.870319   -3.477155   -0.515229
 ---------------------------------------------------------------------

 SCF Done:  E(RHF) =  -470.732494029     A.U. after   11 cycles
 E2 =    -0.1582721235D+01 EUMP2 =    -0.47231521526381D+03

 The electronic state is 1-A.
 Alpha  occ. eigenvalues --  -11.21623 -11.21596 -11.21574 -11.21517 -11.21429
 Alpha  occ. eigenvalues --  -11.21370 -11.21360 -11.21298 -11.21088 -11.21051
 Alpha  occ. eigenvalues --  -11.21049 -11.20851  -1.08451  -1.08375  -1.03560
 Alpha  occ. eigenvalues --   -1.03450  -0.96046  -0.95864  -0.87110  -0.86838
 Alpha  occ. eigenvalues --   -0.79700  -0.79447  -0.78274  -0.78181  -0.65083
 Alpha  occ. eigenvalues --   -0.65009  -0.60972  -0.60855  -0.59372  -0.59268
 Alpha  occ. eigenvalues --   -0.57695  -0.57470  -0.55345  -0.55171  -0.52782
 Alpha  occ. eigenvalues --   -0.52600  -0.52516  -0.52162  -0.49980  -0.49800
 Alpha  occ. eigenvalues --   -0.48047  -0.47696  -0.46650  -0.46522  -0.45840
 Alpha  occ. eigenvalues --   -0.45732  -0.45695  -0.45578  -0.43818  -0.43696
 Alpha virt. eigenvalues --    0.22263   0.23025   0.23674   0.24867   0.26340
 Alpha virt. eigenvalues --    0.26621   0.27122   0.27547   0.27637   0.29244
 Alpha virt. eigenvalues --    0.30721   0.31367   0.31552   0.31908   0.32234

 Mulliken charges:
               1
     1  C   -0.298203
     2  C   -0.299653
     3  C   -0.475717
     4  H    0.149809
     5  H    0.149615
     6  H    0.151900
     7  H    0.151786
     8  H    0.155225
     9  H    0.155257
    10  H    0.160282
    11  C   -0.298339
    12  C   -0.300228
    13  C   -0.477202
    14  H    0.149226
    15  H    0.149071
    16  H    0.151841
    17  H    0.151815
    18  H    0.158133
    19  H    0.155558
    20  H    0.160912
    21  C   -0.298311
    22  C   -0.299767
    23  C   -0.481611
    24  H    0.149566
    25  H    0.149402
    26  H    0.150706
    27  H    0.151422
    28  H    0.153662
    29  H    0.164951
    30  H    0.159377
    31  C   -0.298160
    32  C   -0.299624
    33  C   -0.475662
    34  H    0.149257
    35  H    0.149590
    36  H    0.151878
    37  H    0.151864
    38  H    0.155142
    39  H    0.155088
    40  H    0.160144
 Sum of Mulliken charges =  -0.00000

 Dipole moment (field-independent basis, Debye):
    X=              0.0480    Y=              0.0172    Z=             -0.0097  Tot=              0.0519
 Quadrupole moment (field-independent basis, Debye-Ang):
   XX=            -85.6060   YY=            -85.5348   ZZ=            -83.8027
   XY=             -0.3176   XZ=              0.2890   YZ=              0.0925

 Normal termination of Gaussian 16 at Thu May  6 00:45:37 2021.
