 Gaussian 16, Revision A.03,
 Gaussian 16:  EM64L-G16RevA.03 25-Dec-2016

 -------------
 #p 6-31g* mp2
 -------------

 ------------------------------------------------------
 Input file generated by CHIRIPA (05-May-2021 14:55:19)
 ------------------------------------------------------
 Symbolic Z-matrix:
 Charge =  0 Multiplicity = 1

                         Standard orientation:
 ---------------------------------------------------------------------
 Center     Atomic      Atomic             Coordinates (Angstroms)
 Number     Number       Type             X           Y           Z
 ---------------------------------------------------------------------
      1          6           0       -4.404477   -0.923493   -1.695533
      2          6           0       -4.887080   -0.885684   -0.383212
      3          6           0       -4.064173   -0.460408    0.663933
      4          6           0       -2.758100   -0.078310    0.361503
      5          6           0       -2.248142   -0.104906   -0.935619
      6          6           0       -3.088868   -0.533671   -1.967069
      7          1           0       -5.050652   -1.255213   -2.502884
      8          1           0       -5.908365   -1.187843   -0.169384
      9          1           0       -4.412086   -0.421366    1.689043
     10          1           0       -1.225494    0.202433   -1.117694
     11          1           0       -2.711378   -0.562010   -2.985275
     12          7           0       -1.877493    0.373757    1.461761
     13          8           0       -0.730708    0.705208    1.169080
     14          8           0       -2.350733    0.388076    2.595990
     15          6           0        3.635164    0.891460   -0.535015
     16          6           0        2.269265    1.519843   -0.256729
     17          6           0        2.122486    2.911791   -0.872139
     18          1           0        4.421757    1.551456   -0.144347
     19          1           0        3.788769    0.831137   -1.621367
     20          1           0        2.117696    1.577693    0.828765
     21          1           0        1.485825    0.858182   -0.647935
     22          1           0        2.247460    2.867654   -1.958893
     23          1           0        2.882922    3.591253   -0.473803
     24          1           0        1.138690    3.342395   -0.660987
     25          6           0        3.797116   -0.500251    0.073787
     26          6           0        5.163015   -1.128632   -0.204500
     27          6           0        5.309793   -2.520580    0.410910
     28          1           0        3.643511   -0.439927    1.160140
     29          1           0        3.010523   -1.160246   -0.316881
     30          1           0        5.946456   -0.466972    0.186707
     31          1           0        5.314584   -1.186483   -1.289993
     32          1           0        4.549358   -3.200042    0.012575
     33          1           0        5.184821   -2.476444    1.497665
     34          1           0        6.293589   -2.951185    0.199759
 ---------------------------------------------------------------------

 SCF Done:  E(RHF) =  -669.535401211     A.U. after   15 cycles
 E2 =    -0.2091772769D+01 EUMP2 =    -0.67162717398014D+03

 The electronic state is 1-A.
 Alpha  occ. eigenvalues --  -20.60858 -20.60852 -15.85896 -11.31256 -11.27826
 Alpha  occ. eigenvalues --  -11.27820 -11.27565 -11.26838 -11.26829 -11.21114
 Alpha  occ. eigenvalues --  -11.20735 -11.20660 -11.20644 -11.20512 -11.20312
 Alpha  occ. eigenvalues --   -1.59930  -1.39485  -1.19428  -1.08826  -1.07733
 Alpha  occ. eigenvalues --   -1.04830  -1.02839  -0.95667  -0.95334  -0.86358
 Alpha  occ. eigenvalues --   -0.86229  -0.82505  -0.78905  -0.77688  -0.77339
 Alpha  occ. eigenvalues --   -0.72113  -0.71247  -0.70538  -0.65083  -0.64840
 Alpha  occ. eigenvalues --   -0.64379  -0.62183  -0.60251  -0.58686  -0.56901
 Alpha  occ. eigenvalues --   -0.55332  -0.54656  -0.53159  -0.52924  -0.52035
 Alpha  occ. eigenvalues --   -0.51750  -0.49321  -0.48898  -0.48883  -0.47178
 Alpha  occ. eigenvalues --   -0.45924  -0.45058  -0.44949  -0.44863  -0.43099
 Alpha  occ. eigenvalues --   -0.37409  -0.36433
 Alpha virt. eigenvalues --    0.04982   0.11220   0.16475   0.20699   0.23257
 Alpha virt. eigenvalues --    0.24302   0.26131   0.27579   0.27680   0.28611
 Alpha virt. eigenvalues --    0.29098   0.30436   0.31553   0.32193   0.32577

 Mulliken charges:
               1
     1  C   -0.170349
     2  C   -0.218816
     3  C   -0.170209
     4  C    0.156162
     5  C   -0.172317
     6  C   -0.220278
     7  H    0.225864
     8  H    0.223678
     9  H    0.275783
    10  H    0.280721
    11  H    0.224001
    12  N    0.493610
    13  O   -0.465409
    14  O   -0.460041
    15  C   -0.299141
    16  C   -0.297220
    17  C   -0.477650
    18  H    0.147735
    19  H    0.143046
    20  H    0.168842
    21  H    0.150220
    22  H    0.146788
    23  H    0.153502
    24  H    0.162823
    25  C   -0.296616
    26  C   -0.299052
    27  C   -0.475125
    28  H    0.154397
    29  H    0.146580
    30  H    0.151412
    31  H    0.148994
    32  H    0.153465
    33  H    0.156427
    34  H    0.158174
 Sum of Mulliken charges =  -0.00000

 Dipole moment (field-independent basis, Debye):
    X=             -3.2966    Y=             -1.5808    Z=             -3.6813  Tot=              5.1883
 Quadrupole moment (field-independent basis, Debye-Ang):
   XX=            -75.8096   YY=            -96.4256   ZZ=            -95.3264
   XY=              5.8960   XZ=              7.7595   YZ=              0.2837

 Normal termination of Gaussian 16 at Thu May  6 01:18:37 2021.
