 Gaussian 16, Revision A.03,
 Gaussian 16:  EM64L-G16RevA.03 25-Dec-2016

 -------------
 #p 6-31g* mp2
 -------------

 ------------------------------------------------------
 Input file generated by CHIRIPA (05-May-2021 14:53:14)
 ------------------------------------------------------
 Symbolic Z-matrix:
 Charge =  0 Multiplicity = 1

                         Standard orientation:
 ---------------------------------------------------------------------
 Center     Atomic      Atomic             Coordinates (Angstroms)
 Number     Number       Type             X           Y           Z
 ---------------------------------------------------------------------
      1          6           0       -3.803752    0.648180    0.385686
      2          6           0       -3.733509    2.077829   -0.152045
      3          6           0       -4.264702    3.110338    0.842718
      4          1           0       -4.845224    0.410415    0.642104
      5          1           0       -3.229844    0.586938    1.320712
      6          1           0       -4.306232    2.136024   -1.086506
      7          1           0       -2.692112    2.312151   -0.407392
      8          1           0       -3.687886    3.081486    1.772799
      9          1           0       -5.311177    2.904359    1.089827
     10          1           0       -4.205164    4.125458    0.437937
     11          6           0       -3.276276   -0.395423   -0.597366
     12          6           0       -3.346519   -1.825072   -0.059635
     13          6           0       -2.815326   -2.857581   -1.054397
     14          1           0       -3.850184   -0.334181   -1.532392
     15          1           0       -2.234804   -0.157658   -0.853783
     16          1           0       -4.387915   -2.059394    0.195712
     17          1           0       -2.773795   -1.883268    0.874826
     18          1           0       -1.768850   -2.651602   -1.301506
     19          1           0       -3.392141   -2.828729   -1.984479
     20          1           0       -2.874864   -3.872701   -0.649617
     21          6           0        1.420220   -1.953158    1.139518
     22          6           0        2.336457   -1.227558    1.907981
     23          6           0        3.087312   -0.197956    1.332927
     24          6           0        2.895705    0.080546   -0.019483
     25          6           0        1.990620   -0.624363   -0.811452
     26          6           0        1.250526   -1.649780   -0.215358
     27          1           0        0.841119   -2.751352    1.594405
     28          1           0        2.470329   -1.460967    2.960428
     29          1           0        3.803498    0.379686    1.904614
     30          1           0        1.879131   -0.368531   -1.858131
     31          1           0        0.539684   -2.211624   -0.814591
     32          7           0        3.684906    1.168324   -0.639404
     33          8           0        3.497559    1.394134   -1.832948
     34          8           0        4.475884    1.774518    0.079985
 ---------------------------------------------------------------------

 SCF Done:  E(RHF) =  -669.535597502     A.U. after   15 cycles
 E2 =    -0.2091342520D+01 EUMP2 =    -0.67162694002231D+03

 The electronic state is 1-A.
 Alpha  occ. eigenvalues --  -20.60790 -20.60785 -15.85844 -11.31222 -11.27798
 Alpha  occ. eigenvalues --  -11.27794 -11.27538 -11.26809 -11.26794 -11.22364
 Alpha  occ. eigenvalues --  -11.22066 -11.21936 -11.21853 -11.21762 -11.21253
 Alpha  occ. eigenvalues --   -1.59866  -1.39419  -1.19398  -1.08940  -1.08788
 Alpha  occ. eigenvalues --   -1.04804  -1.04062  -0.96522  -0.95621  -0.87542
 Alpha  occ. eigenvalues --   -0.86200  -0.82454  -0.80136  -0.78709  -0.77501
 Alpha  occ. eigenvalues --   -0.72062  -0.71190  -0.70501  -0.65606  -0.65049
 Alpha  occ. eigenvalues --   -0.64806  -0.62201  -0.61418  -0.59908  -0.58110
 Alpha  occ. eigenvalues --   -0.55841  -0.55290  -0.53222  -0.53129  -0.53046
 Alpha  occ. eigenvalues --   -0.52794  -0.50464  -0.48824  -0.48816  -0.48439
 Alpha  occ. eigenvalues --   -0.47163  -0.46259  -0.46155  -0.44822  -0.44293
 Alpha  occ. eigenvalues --   -0.37376  -0.36403
 Alpha virt. eigenvalues --    0.05029   0.11180   0.16467   0.19523   0.22799
 Alpha virt. eigenvalues --    0.23880   0.25377   0.26354   0.27149   0.28256
 Alpha virt. eigenvalues --    0.28699   0.29860   0.31075   0.31580   0.32005

 Mulliken charges:
               1
     1  C   -0.298457
     2  C   -0.300561
     3  C   -0.476019
     4  H    0.150147
     5  H    0.149403
     6  H    0.152645
     7  H    0.154480
     8  H    0.155354
     9  H    0.154910
    10  H    0.162484
    11  C   -0.298973
    12  C   -0.299380
    13  C   -0.479315
    14  H    0.151454
    15  H    0.149073
    16  H    0.155504
    17  H    0.148295
    18  H    0.145973
    19  H    0.161160
    20  H    0.161065
    21  C   -0.173143
    22  C   -0.218650
    23  C   -0.170904
    24  C    0.158763
    25  C   -0.173012
    26  C   -0.224312
    27  H    0.226464
    28  H    0.223577
    29  H    0.275758
    30  H    0.276234
    31  H    0.232597
    32  N    0.488037
    33  O   -0.460254
    34  O   -0.460396
 Sum of Mulliken charges =  -0.00000

 Dipole moment (field-independent basis, Debye):
    X=             -2.8964    Y=             -3.7672    Z=              2.1938  Tot=              5.2339
 Quadrupole moment (field-independent basis, Debye-Ang):
   XX=           -109.2445   YY=            -96.6192   ZZ=            -91.3326
   XY=            -10.5633   XZ=              9.4221   YZ=              0.5788

 Normal termination of Gaussian 16 at Wed May  5 18:36:02 2021.
