 Gaussian 16, Revision A.03,
 Gaussian 16:  EM64L-G16RevA.03 25-Dec-2016

 -------------
 #p 6-31g* mp2
 -------------

 ------------------------------------------------------
 Input file generated by CHIRIPA (05-May-2021 14:57:27)
 ------------------------------------------------------
 Symbolic Z-matrix:
 Charge =  0 Multiplicity = 1

                         Standard orientation:
 ---------------------------------------------------------------------
 Center     Atomic      Atomic             Coordinates (Angstroms)
 Number     Number       Type             X           Y           Z
 ---------------------------------------------------------------------
      1          6           0        3.770115    2.080656    1.373600
      2          6           0        2.720727    1.232780    1.742941
      3          6           0        2.425200    0.096562    0.983849
      4          6           0        3.202957   -0.162711   -0.143609
      5          6           0        4.254967    0.662810   -0.537410
      6          6           0        4.532542    1.793471    0.236608
      7          1           0        3.992714    2.961139    1.969079
      8          1           0        2.126940    1.453327    2.625449
      9          1           0        1.618516   -0.576812    1.246998
     10          1           0        4.829213    0.416784   -1.422358
     11          1           0        5.348109    2.450164   -0.052614
     12          7           0        2.899599   -1.362633   -0.955127
     13          8           0        3.599724   -1.568956   -1.944011
     14          8           0        1.967445   -2.074088   -0.586944
     15          6           0       -4.402770    1.825522   -1.247963
     16          6           0       -3.085341    1.477142   -1.563452
     17          6           0       -2.438352    0.447891   -0.873095
     18          6           0       -3.141794   -0.214923    0.131462
     19          6           0       -4.454990    0.108933    0.468991
     20          6           0       -5.082192    1.141511   -0.234535
     21          1           0       -4.897681    2.626361   -1.789363
     22          1           0       -2.555240    2.006627   -2.350017
     23          1           0       -1.418979    0.157679   -1.096867
     24          1           0       -4.957577   -0.437091    1.258093
     25          1           0       -6.105381    1.409917    0.012624
     26          7           0       -2.467330   -1.306307    0.869283
     27          8           0       -3.108883   -1.874875    1.750066
     28          8           0       -1.309903   -1.572501    0.552833
 ---------------------------------------------------------------------

 SCF Done:  E(RHF) =  -868.337570690     A.U. after   16 cycles
 E2 =    -0.2599892031D+01 EUMP2 =    -0.87093746272088D+03

 The electronic state is 1-A.
 Alpha  occ. eigenvalues --  -20.60661 -20.60643 -20.60172 -20.60084 -15.85688
 Alpha  occ. eigenvalues --  -15.85174 -11.31112 -11.30688 -11.27702 -11.27662
 Alpha  occ. eigenvalues --  -11.27454 -11.27346 -11.27148 -11.27111 -11.26727
 Alpha  occ. eigenvalues --  -11.26704 -11.26389 -11.26304  -1.59729  -1.59219
 Alpha  occ. eigenvalues --   -1.39275  -1.38753  -1.19295  -1.18897  -1.08683
 Alpha  occ. eigenvalues --   -1.08278  -1.04702  -1.04306  -0.95503  -0.95070
 Alpha  occ. eigenvalues --   -0.86097  -0.85697  -0.82326  -0.81880  -0.77374
 Alpha  occ. eigenvalues --   -0.76880  -0.71908  -0.71349  -0.71061  -0.70563
 Alpha  occ. eigenvalues --   -0.70397  -0.69985  -0.64943  -0.64703  -0.64533
 Alpha  occ. eigenvalues --   -0.64305  -0.62041  -0.61613  -0.55207  -0.54828
 Alpha  occ. eigenvalues --   -0.53037  -0.52791  -0.52662  -0.52382  -0.48686
 Alpha  occ. eigenvalues --   -0.48651  -0.48187  -0.48106  -0.44665  -0.44121
 Alpha  occ. eigenvalues --   -0.37289  -0.36925  -0.36311  -0.35931
 Alpha virt. eigenvalues --    0.05126   0.05603   0.11339   0.11706   0.16582
 Alpha virt. eigenvalues --    0.17049   0.21432   0.21918   0.27361   0.27734
 Alpha virt. eigenvalues --    0.28227   0.28953   0.30870   0.31462   0.32348

 Mulliken charges:
               1
     1  C   -0.171611
     2  C   -0.221153
     3  C   -0.178437
     4  C    0.154144
     5  C   -0.172198
     6  C   -0.219711
     7  H    0.223212
     8  H    0.223556
     9  H    0.294967
    10  H    0.273755
    11  H    0.220933
    12  N    0.485165
    13  O   -0.466639
    14  O   -0.447737
    15  C   -0.171082
    16  C   -0.218844
    17  C   -0.172109
    18  C    0.157118
    19  C   -0.171383
    20  C   -0.218785
    21  H    0.225129
    22  H    0.223779
    23  H    0.279281
    24  H    0.275258
    25  H    0.222938
    26  N    0.488195
    27  O   -0.461528
    28  O   -0.456217
 Sum of Mulliken charges =  -0.00000

 Dipole moment (field-independent basis, Debye):
    X=             -1.4868    Y=              7.8692    Z=              0.2984  Tot=              8.0139
 Quadrupole moment (field-independent basis, Debye-Ang):
   XX=            -78.6206   YY=           -108.8760   ZZ=           -104.0637
   XY=              3.1512   XZ=             12.0740   YZ=             -1.4354

 Normal termination of Gaussian 16 at Thu May  6 13:09:39 2021.
