 Gaussian 16, Revision A.03,
 Gaussian 16:  EM64L-G16RevA.03 25-Dec-2016

 -------------
 #p 6-31g* mp2
 -------------

 ------------------------------------------------------
 Input file generated by CHIRIPA (05-May-2021 14:51:11)
 ------------------------------------------------------
 Symbolic Z-matrix:
 Charge =  0 Multiplicity = 1

                         Standard orientation:
 ---------------------------------------------------------------------
 Center     Atomic      Atomic             Coordinates (Angstroms)
 Number     Number       Type             X           Y           Z
 ---------------------------------------------------------------------
      1          6           0       -3.982228    0.600733    0.142717
      2          6           0       -5.399472    0.447337   -0.410342
      3          6           0       -6.160799    1.772321   -0.461258
      4          1           0       -4.033787    1.034604    1.150706
      5          1           0       -3.429333    1.318728   -0.478720
      6          1           0       -5.949095   -0.271202    0.211135
      7          1           0       -5.344543    0.013602   -1.417056
      8          1           0       -5.637191    2.493287   -1.097374
      9          1           0       -6.245178    2.206865    0.540067
     10          1           0       -7.171464    1.639563   -0.859743
     11          6           0       -3.208475   -0.715236    0.199824
     12          6           0       -1.791231   -0.561840    0.752883
     13          6           0       -1.029904   -1.886824    0.803800
     14          1           0       -3.761370   -1.433231    0.821262
     15          1           0       -3.156916   -1.149108   -0.808165
     16          1           0       -1.846160   -0.128105    1.759597
     17          1           0       -1.241608    0.156698    0.131407
     18          1           0       -0.945525   -2.321368   -0.197526
     19          1           0       -1.553512   -2.607790    1.439916
     20          1           0       -0.019238   -1.754066    1.202285
     21          6           0        3.709496    0.767907   -0.426948
     22          6           0        4.465747    1.654377    0.563124
     23          6           0        4.686396    3.073053    0.037323
     24          1           0        4.266814    0.727366   -1.372833
     25          1           0        2.739247    1.230311   -0.655404
     26          1           0        5.433702    1.189743    0.790709
     27          1           0        3.906661    1.692658    1.506825
     28          1           0        3.728292    3.559557   -0.172325
     29          1           0        5.264009    3.053784   -0.892512
     30          1           0        5.228775    3.689564    0.760926
     31          6           0        3.481206   -0.653404    0.084407
     32          6           0        2.724955   -1.539873   -0.905665
     33          6           0        2.504307   -2.958550   -0.379865
     34          1           0        4.451456   -1.115809    0.312863
     35          1           0        2.923888   -0.612863    1.030292
     36          1           0        3.284042   -1.578154   -1.849366
     37          1           0        1.757001   -1.075239   -1.133250
     38          1           0        1.926694   -2.939281    0.549971
     39          1           0        3.462411   -3.445054   -0.170216
     40          1           0        1.961928   -3.575060   -1.103467
 ---------------------------------------------------------------------

 SCF Done:  E(RHF) =  -470.732878637     A.U. after   11 cycles
 E2 =    -0.1583055912D+01 EUMP2 =    -0.47231593454917D+03

 The electronic state is 1-A.
 Alpha  occ. eigenvalues --  -11.21650 -11.21623 -11.21595 -11.21553 -11.21437
 Alpha  occ. eigenvalues --  -11.21397 -11.21377 -11.21338 -11.21091 -11.21088
 Alpha  occ. eigenvalues --  -11.21067 -11.20958  -1.08467  -1.08408  -1.03589
 Alpha  occ. eigenvalues --   -1.03475  -0.96057  -0.95905  -0.87075  -0.86921
 Alpha  occ. eigenvalues --   -0.79650  -0.79541  -0.78276  -0.78227  -0.65140
 Alpha  occ. eigenvalues --   -0.65017  -0.61112  -0.60834  -0.59372  -0.59292
 Alpha  occ. eigenvalues --   -0.57655  -0.57524  -0.55413  -0.55135  -0.52728
 Alpha  occ. eigenvalues --   -0.52644  -0.52442  -0.52311  -0.49981  -0.49830
 Alpha  occ. eigenvalues --   -0.47973  -0.47845  -0.46658  -0.46593  -0.45821
 Alpha  occ. eigenvalues --   -0.45765  -0.45745  -0.45687  -0.43785  -0.43749
 Alpha virt. eigenvalues --    0.20493   0.23104   0.23672   0.25184   0.26083
 Alpha virt. eigenvalues --    0.26301   0.27037   0.27360   0.28030   0.29121
 Alpha virt. eigenvalues --    0.29807   0.31196   0.31652   0.32049   0.32196

 Mulliken charges:
               1
     1  C   -0.298274
     2  C   -0.299665
     3  C   -0.475723
     4  H    0.149667
     5  H    0.149458
     6  H    0.151995
     7  H    0.152013
     8  H    0.155203
     9  H    0.155195
    10  H    0.160346
    11  C   -0.298617
    12  C   -0.300373
    13  C   -0.478714
    14  H    0.149750
    15  H    0.149791
    16  H    0.151889
    17  H    0.151437
    18  H    0.157099
    19  H    0.155192
    20  H    0.163054
    21  C   -0.298130
    22  C   -0.299655
    23  C   -0.475703
    24  H    0.149670
    25  H    0.149280
    26  H    0.151938
    27  H    0.151970
    28  H    0.155157
    29  H    0.155141
    30  H    0.160249
    31  C   -0.299019
    32  C   -0.301703
    33  C   -0.477262
    34  H    0.149727
    35  H    0.149153
    36  H    0.151796
    37  H    0.153726
    38  H    0.159386
    39  H    0.154084
    40  H    0.159474
 Sum of Mulliken charges =  -0.00000

 Dipole moment (field-independent basis, Debye):
    X=             -0.0271    Y=             -0.0135    Z=              0.0058  Tot=              0.0309
 Quadrupole moment (field-independent basis, Debye-Ang):
   XX=            -84.4435   YY=            -86.5806   ZZ=            -83.7761
   XY=              0.1971   XZ=             -0.7068   YZ=              0.2805

 Normal termination of Gaussian 16 at Wed May  5 15:15:27 2021.
