 Gaussian 16, Revision A.03,
 Gaussian 16:  EM64L-G16RevA.03 25-Dec-2016

 -------------
 #p 6-31g* mp2
 -------------

 ------------------------------------------------------
 Input file generated by CHIRIPA (05-May-2021 14:53:18)
 ------------------------------------------------------
 Symbolic Z-matrix:
 Charge =  0 Multiplicity = 1

                         Standard orientation:
 ---------------------------------------------------------------------
 Center     Atomic      Atomic             Coordinates (Angstroms)
 Number     Number       Type             X           Y           Z
 ---------------------------------------------------------------------
      1          6           0       -3.998690   -0.170094    0.438572
      2          6           0       -3.069559   -1.220191   -0.171344
      3          6           0       -1.739947   -1.337658    0.574395
      4          1           0       -3.490153    0.803730    0.439963
      5          1           0       -4.188451   -0.425124    1.490401
      6          1           0       -2.882718   -0.964013   -1.222095
      7          1           0       -3.580440   -2.191590   -0.171459
      8          1           0       -1.907863   -1.616406    1.619720
      9          1           0       -1.206176   -0.381853    0.563114
     10          1           0       -1.091154   -2.093919    0.121629
     11          6           0       -5.331923   -0.040986   -0.295969
     12          6           0       -6.261054    1.009111    0.313946
     13          6           0       -7.590667    1.126578   -0.431792
     14          1           0       -5.142163    0.214044   -1.347799
     15          1           0       -5.840460   -1.014810   -0.297361
     16          1           0       -5.750173    1.980510    0.314061
     17          1           0       -6.447895    0.752933    1.364698
     18          1           0       -8.124437    0.170773   -0.420511
     19          1           0       -7.422751    1.405326   -1.477118
     20          1           0       -8.239459    1.882839    0.020973
     21          6           0        4.693297    2.375096    0.045816
     22          6           0        5.503368    1.234869    0.031980
     23          6           0        4.933305   -0.040445   -0.024128
     24          6           0        3.543403   -0.139191   -0.065518
     25          6           0        2.709540    0.977862   -0.053073
     26          6           0        3.301423    2.243185    0.003320
     27          1           0        5.144611    3.361910    0.089512
     28          1           0        6.584607    1.334290    0.064895
     29          1           0        5.536813   -0.939919   -0.036020
     30          1           0        1.634770    0.846907   -0.086809
     31          1           0        2.669836    3.126945    0.013940
     32          7           0        2.928352   -1.484020   -0.125069
     33          8           0        1.701263   -1.544128   -0.160753
     34          8           0        3.685013   -2.452528   -0.134932
 ---------------------------------------------------------------------

 SCF Done:  E(RHF) =  -669.535635694     A.U. after   15 cycles
 E2 =    -0.2090984258D+01 EUMP2 =    -0.67162661995192D+03

 The electronic state is 1-A.
 Alpha  occ. eigenvalues --  -20.60834 -20.60826 -15.85875 -11.31231 -11.27800
 Alpha  occ. eigenvalues --  -11.27797 -11.27544 -11.26816 -11.26806 -11.21354
 Alpha  occ. eigenvalues --  -11.21026 -11.20912 -11.20872 -11.20836 -11.19929
 Alpha  occ. eigenvalues --   -1.59903  -1.39457  -1.19404  -1.08803  -1.07976
 Alpha  occ. eigenvalues --   -1.04806  -1.02987  -0.95651  -0.95398  -0.86420
 Alpha  occ. eigenvalues --   -0.86204  -0.82472  -0.79071  -0.77787  -0.77505
 Alpha  occ. eigenvalues --   -0.72106  -0.71220  -0.70513  -0.65061  -0.64811
 Alpha  occ. eigenvalues --   -0.64619  -0.62155  -0.60399  -0.58793  -0.57004
 Alpha  occ. eigenvalues --   -0.55310  -0.54722  -0.53136  -0.52900  -0.52018
 Alpha  occ. eigenvalues --   -0.51842  -0.49406  -0.48856  -0.48831  -0.47366
 Alpha  occ. eigenvalues --   -0.46137  -0.45316  -0.45250  -0.44860  -0.43197
 Alpha  occ. eigenvalues --   -0.37386  -0.36409
 Alpha virt. eigenvalues --    0.05011   0.11245   0.16504   0.20978   0.23208
 Alpha virt. eigenvalues --    0.24355   0.26174   0.27218   0.27646   0.27975
 Alpha virt. eigenvalues --    0.29214   0.30457   0.31547   0.32168   0.32684

 Mulliken charges:
               1
     1  C   -0.296836
     2  C   -0.301144
     3  C   -0.474868
     4  H    0.144737
     5  H    0.148632
     6  H    0.150004
     7  H    0.150943
     8  H    0.149914
     9  H    0.145553
    10  H    0.184362
    11  C   -0.297633
    12  C   -0.298981
    13  C   -0.475387
    14  H    0.148423
    15  H    0.149896
    16  H    0.149858
    17  H    0.151592
    18  H    0.155412
    19  H    0.154556
    20  H    0.158973
    21  C   -0.170557
    22  C   -0.218705
    23  C   -0.170465
    24  C    0.157350
    25  C   -0.171832
    26  C   -0.219092
    27  H    0.225744
    28  H    0.223577
    29  H    0.275715
    30  H    0.277829
    31  H    0.223654
    32  N    0.493351
    33  O   -0.464476
    34  O   -0.460099
 Sum of Mulliken charges =  -0.00000

 Dipole moment (field-independent basis, Debye):
    X=              2.3844    Y=              4.6140    Z=              0.1855  Tot=              5.1970
 Quadrupole moment (field-independent basis, Debye-Ang):
   XX=            -77.0119   YY=            -95.0238   ZZ=            -95.6479
   XY=             15.2893   XZ=              0.0518   YZ=             -0.7143

 Normal termination of Gaussian 16 at Thu May  6 15:40:27 2021.
