 Gaussian 16, Revision A.03,
 Gaussian 16:  EM64L-G16RevA.03 25-Dec-2016

 -------------
 #p 6-31g* mp2
 -------------

 ------------------------------------------------------
 Input file generated by CHIRIPA (05-May-2021 14:51:13)
 ------------------------------------------------------
 Symbolic Z-matrix:
 Charge =  0 Multiplicity = 1

                         Standard orientation:
 ---------------------------------------------------------------------
 Center     Atomic      Atomic             Coordinates (Angstroms)
 Number     Number       Type             X           Y           Z
 ---------------------------------------------------------------------
      1          6           0        3.963610    0.093434   -0.268195
      2          6           0        2.975450    1.250676   -0.118803
      3          6           0        1.557638    0.877075   -0.552421
      4          1           0        3.974363   -0.238284   -1.315474
      5          1           0        3.610291   -0.760329    0.326489
      6          1           0        3.331248    2.102473   -0.712491
      7          1           0        2.967190    1.579804    0.928204
      8          1           0        1.178558    0.043170    0.047164
      9          1           0        1.544685    0.568810   -1.602852
     10          1           0        0.867689    1.718853   -0.437354
     11          6           0        5.385252    0.451465    0.161313
     12          6           0        6.373411   -0.705777    0.011921
     13          6           0        7.791223   -0.332176    0.445539
     14          1           0        5.738570    1.305227   -0.433372
     15          1           0        5.374498    0.783183    1.208591
     16          1           0        6.381672   -1.034905   -1.035086
     17          1           0        6.017614   -1.557574    0.605609
     18          1           0        7.804177   -0.023911    1.495970
     19          1           0        8.170303    0.501728   -0.154046
     20          1           0        8.481172   -1.173954    0.330472
     21          6           0       -3.972925   -0.294412    0.354836
     22          6           0       -2.966810   -1.059125   -0.505940
     23          6           0       -1.567940   -1.094299    0.110274
     24          1           0       -3.611293    0.731929    0.505802
     25          1           0       -4.021070   -0.758367    1.349734
     26          1           0       -2.921598   -0.594708   -1.499363
     27          1           0       -3.330973   -2.083708   -0.655034
     28          1           0       -1.591810   -1.576676    1.092794
     29          1           0       -1.180108   -0.079215    0.243668
     30          1           0       -0.864713   -1.645867   -0.521471
     31          6           0       -5.375937   -0.250486   -0.247953
     32          6           0       -6.382052    0.514225    0.612822
     33          6           0       -7.780921    0.549400   -0.003393
     34          1           0       -5.327791    0.213469   -1.242852
     35          1           0       -5.737569   -1.276827   -0.398920
     36          1           0       -6.017888    1.538809    0.761916
     37          1           0       -6.427264    0.049810    1.606245
     38          1           0       -8.168753   -0.465683   -0.136786
     39          1           0       -7.757051    1.031777   -0.985911
     40          1           0       -8.484149    1.100969    0.628353
 ---------------------------------------------------------------------

 SCF Done:  E(RHF) =  -470.732390557     A.U. after   11 cycles
 E2 =    -0.1582630996D+01 EUMP2 =    -0.47231502155269D+03

 The electronic state is 1-A.
 Alpha  occ. eigenvalues --  -11.21582 -11.21580 -11.21539 -11.21530 -11.21375
 Alpha  occ. eigenvalues --  -11.21369 -11.21316 -11.21309 -11.21056 -11.21054
 Alpha  occ. eigenvalues --  -11.20957 -11.20931  -1.08402  -1.08383  -1.03525
 Alpha  occ. eigenvalues --   -1.03450  -0.96028  -0.95856  -0.87106  -0.86821
 Alpha  occ. eigenvalues --   -0.79684  -0.79432  -0.78230  -0.78180  -0.65051
 Alpha  occ. eigenvalues --   -0.65000  -0.60995  -0.60796  -0.59347  -0.59283
 Alpha  occ. eigenvalues --   -0.57578  -0.57520  -0.55446  -0.55058  -0.52808
 Alpha  occ. eigenvalues --   -0.52639  -0.52353  -0.52212  -0.50085  -0.49641
 Alpha  occ. eigenvalues --   -0.47902  -0.47822  -0.46703  -0.46437  -0.45791
 Alpha  occ. eigenvalues --   -0.45722  -0.45686  -0.45595  -0.43745  -0.43710
 Alpha virt. eigenvalues --    0.22684   0.22933   0.23763   0.24673   0.26498
 Alpha virt. eigenvalues --    0.26630   0.26995   0.27431   0.27679   0.29117
 Alpha virt. eigenvalues --    0.30358   0.31035   0.31621   0.31909   0.32356

 Mulliken charges:
               1
     1  C   -0.298464
     2  C   -0.299998
     3  C   -0.479160
     4  H    0.149406
     5  H    0.149688
     6  H    0.151223
     7  H    0.151595
     8  H    0.163710
     9  H    0.154415
    10  H    0.158079
    11  C   -0.298218
    12  C   -0.299623
    13  C   -0.475683
    14  H    0.149458
    15  H    0.149605
    16  H    0.151862
    17  H    0.151916
    18  H    0.155157
    19  H    0.155138
    20  H    0.160182
    21  C   -0.298464
    22  C   -0.299890
    23  C   -0.479820
    24  H    0.149544
    25  H    0.149281
    26  H    0.151959
    27  H    0.151284
    28  H    0.153521
    29  H    0.162116
    30  H    0.160469
    31  C   -0.298242
    32  C   -0.299597
    33  C   -0.475677
    34  H    0.149483
    35  H    0.149591
    36  H    0.151853
    37  H    0.151842
    38  H    0.155145
    39  H    0.155154
    40  H    0.160159
 Sum of Mulliken charges =  -0.00000

 Dipole moment (field-independent basis, Debye):
    X=              0.0039    Y=             -0.0051    Z=              0.0038  Tot=              0.0075
 Quadrupole moment (field-independent basis, Debye-Ang):
   XX=            -87.2516   YY=            -84.0491   ZZ=            -83.8194
   XY=              0.1840   XZ=             -0.9272   YZ=             -0.7130

 Normal termination of Gaussian 16 at Thu May  6 05:35:07 2021.
