 Gaussian 16, Revision A.03,
 Gaussian 16:  EM64L-G16RevA.03 25-Dec-2016

 -------------
 #p 6-31g* mp2
 -------------

 ------------------------------------------------------
 Input file generated by CHIRIPA (05-May-2021 14:51:10)
 ------------------------------------------------------
 Symbolic Z-matrix:
 Charge =  0 Multiplicity = 1

                         Standard orientation:
 ---------------------------------------------------------------------
 Center     Atomic      Atomic             Coordinates (Angstroms)
 Number     Number       Type             X           Y           Z
 ---------------------------------------------------------------------
      1          6           0       -4.188295    0.303786    0.303853
      2          6           0       -3.482532    1.509434   -0.317675
      3          6           0       -2.110012    1.774946    0.301589
      4          1           0       -4.297627    0.467951    1.384613
      5          1           0       -3.553379   -0.585169    0.185381
      6          1           0       -4.119204    2.395577   -0.199292
      7          1           0       -3.375039    1.342464   -1.397111
      8          1           0       -1.454155    0.908149    0.170769
      9          1           0       -2.202548    1.967245    1.375395
     10          1           0       -1.623213    2.641063   -0.157462
     11          6           0       -5.561588    0.025620   -0.304767
     12          6           0       -6.267351   -1.180028    0.316761
     13          6           0       -7.639871   -1.445541   -0.302502
     14          1           0       -6.196504    0.914575   -0.186295
     15          1           0       -5.452256   -0.138545   -1.385526
     16          1           0       -6.374844   -1.013058    1.396198
     17          1           0       -5.630679   -2.066171    0.198378
     18          1           0       -7.547335   -1.637839   -1.376308
     19          1           0       -8.295729   -0.578743   -0.171683
     20          1           0       -8.126671   -2.311658    0.156548
     21          6           0        5.537288   -0.100115   -0.374452
     22          6           0        6.734058   -0.635752    0.412199
     23          6           0        8.051938   -0.499569   -0.350979
     24          1           0        5.465822   -0.635862   -1.330910
     25          1           0        5.712196    0.956460   -0.620325
     26          1           0        6.556327   -1.690623    0.657710
     27          1           0        6.802570   -0.098799    1.366978
     28          1           0        8.256002    0.550735   -0.582975
     29          1           0        8.008362   -1.050134   -1.296273
     30          1           0        8.894171   -0.888582    0.229686
     31          6           0        4.212594   -0.229291    0.375366
     32          6           0        3.015825    0.306347   -0.411285
     33          6           0        1.697946    0.170163    0.351892
     34          1           0        4.037687   -1.285866    0.621239
     35          1           0        4.284061    0.306457    1.331824
     36          1           0        2.947314   -0.230607   -1.366064
     37          1           0        3.193555    1.361217   -0.656796
     38          1           0        1.741522    0.720728    1.297186
     39          1           0        1.493881   -0.880141    0.583888
     40          1           0        0.855712    0.559175   -0.228773
 ---------------------------------------------------------------------

 SCF Done:  E(RHF) =  -470.733144917     A.U. after   11 cycles
 E2 =    -0.1582145530D+01 EUMP2 =    -0.47231529044676D+03

 The electronic state is 1-A.
 Alpha  occ. eigenvalues --  -11.21588 -11.21587 -11.21570 -11.21569 -11.21384
 Alpha  occ. eigenvalues --  -11.21383 -11.21325 -11.21323 -11.21061 -11.21060
 Alpha  occ. eigenvalues --  -11.21002 -11.21000  -1.08412  -1.08403  -1.03523
 Alpha  occ. eigenvalues --   -1.03487  -0.96000  -0.95911  -0.87050  -0.86897
 Alpha  occ. eigenvalues --   -0.79632  -0.79506  -0.78229  -0.78211  -0.65041
 Alpha  occ. eigenvalues --   -0.65038  -0.60929  -0.60900  -0.59352  -0.59311
 Alpha  occ. eigenvalues --   -0.57621  -0.57519  -0.55259  -0.55238  -0.52837
 Alpha  occ. eigenvalues --   -0.52595  -0.52388  -0.52245  -0.49895  -0.49866
 Alpha  occ. eigenvalues --   -0.47923  -0.47840  -0.46602  -0.46596  -0.45769
 Alpha  occ. eigenvalues --   -0.45755  -0.45689  -0.45688  -0.43794  -0.43679
 Alpha virt. eigenvalues --    0.22559   0.22975   0.23681   0.24736   0.26416
 Alpha virt. eigenvalues --    0.26669   0.26983   0.27519   0.27626   0.28798
 Alpha virt. eigenvalues --    0.30483   0.31407   0.31746   0.31919   0.31994

 Mulliken charges:
               1
     1  C   -0.298429
     2  C   -0.299504
     3  C   -0.480738
     4  H    0.149686
     5  H    0.149749
     6  H    0.151696
     7  H    0.151545
     8  H    0.161437
     9  H    0.155283
    10  H    0.159544
    11  C   -0.298268
    12  C   -0.299637
    13  C   -0.475691
    14  H    0.149484
    15  H    0.149553
    16  H    0.151945
    17  H    0.151912
    18  H    0.155135
    19  H    0.155160
    20  H    0.160206
    21  C   -0.298206
    22  C   -0.299598
    23  C   -0.475684
    24  H    0.149534
    25  H    0.149500
    26  H    0.151876
    27  H    0.151944
    28  H    0.155170
    29  H    0.155130
    30  H    0.160207
    31  C   -0.298526
    32  C   -0.299481
    33  C   -0.480298
    34  H    0.149373
    35  H    0.149676
    36  H    0.151502
    37  H    0.151947
    38  H    0.155799
    39  H    0.154195
    40  H    0.165869
 Sum of Mulliken charges =  -0.00000

 Dipole moment (field-independent basis, Debye):
    X=             -0.0020    Y=              0.0031    Z=              0.0084  Tot=              0.0092
 Quadrupole moment (field-independent basis, Debye-Ang):
   XX=            -86.8369   YY=            -83.6753   ZZ=            -84.4309
   XY=             -0.4412   XZ=             -0.1739   YZ=              0.7506

 Normal termination of Gaussian 16 at Wed May  5 15:09:57 2021.
