 Gaussian 16, Revision A.03,
 Gaussian 16:  EM64L-G16RevA.03 25-Dec-2016

 -------------
 #p 6-31g* mp2
 -------------

 ------------------------------------------------------
 Input file generated by CHIRIPA (05-May-2021 14:57:25)
 ------------------------------------------------------
 Symbolic Z-matrix:
 Charge =  0 Multiplicity = 1

                         Standard orientation:
 ---------------------------------------------------------------------
 Center     Atomic      Atomic             Coordinates (Angstroms)
 Number     Number       Type             X           Y           Z
 ---------------------------------------------------------------------
      1          6           0       -4.900128    1.274746   -0.916345
      2          6           0       -4.006673    1.836565    0.001598
      3          6           0       -3.039123    1.044302    0.626668
      4          6           0       -2.993161   -0.312240    0.308907
      5          6           0       -3.869324   -0.901385   -0.601333
      6          6           0       -4.828728   -0.090030   -1.214355
      7          1           0       -5.648580    1.897610   -1.397235
      8          1           0       -4.059795    2.896170    0.234964
      9          1           0       -2.335080    1.453311    1.341128
     10          1           0       -3.791834   -1.960788   -0.813648
     11          1           0       -5.521301   -0.529065   -1.926840
     12          7           0       -1.973171   -1.161079    0.964263
     13          8           0       -1.953391   -2.353546    0.667162
     14          8           0       -1.212795   -0.617860    1.762623
     15          6           0        3.052345    2.669490    0.143059
     16          6           0        1.876475    1.938109   -0.054249
     17          6           0        1.924876    0.554094   -0.245839
     18          6           0        3.171797   -0.069074   -0.234148
     19          6           0        4.360958    0.632007   -0.040057
     20          6           0        4.288655    2.015259    0.149514
     21          1           0        3.005463    3.744329    0.291107
     22          1           0        0.914939    2.443544   -0.059748
     23          1           0        1.030095   -0.036480   -0.400786
     24          1           0        5.304693    0.100235   -0.039700
     25          1           0        5.203481    2.580705    0.302515
     26          7           0        3.235689   -1.533865   -0.435906
     27          8           0        4.346700   -2.059296   -0.421281
     28          8           0        2.173547   -2.128800   -0.604852
 ---------------------------------------------------------------------

 SCF Done:  E(RHF) =  -868.336763834     A.U. after   16 cycles
 E2 =    -0.2600131701D+01 EUMP2 =    -0.87093689553522D+03

 The electronic state is 1-A.
 Alpha  occ. eigenvalues --  -20.61007 -20.60932 -20.59972 -20.59913 -15.86014
 Alpha  occ. eigenvalues --  -15.85001 -11.31514 -11.30498 -11.28143 -11.28029
 Alpha  occ. eigenvalues --  -11.27822 -11.27155 -11.27145 -11.27074 -11.27071
 Alpha  occ. eigenvalues --  -11.26960 -11.26201 -11.26191  -1.60039  -1.59019
 Alpha  occ. eigenvalues --   -1.39589  -1.38566  -1.19688  -1.18714  -1.09054
 Alpha  occ. eigenvalues --   -1.08099  -1.05106  -1.04144  -0.95866  -0.94901
 Alpha  occ. eigenvalues --   -0.86495  -0.85546  -0.82692  -0.81733  -0.77731
 Alpha  occ. eigenvalues --   -0.76742  -0.72212  -0.71406  -0.71205  -0.70779
 Alpha  occ. eigenvalues --   -0.70341  -0.69842  -0.65331  -0.65098  -0.64377
 Alpha  occ. eigenvalues --   -0.64182  -0.62450  -0.61492  -0.55581  -0.54691
 Alpha  occ. eigenvalues --   -0.53433  -0.53191  -0.52459  -0.52262  -0.48993
 Alpha  occ. eigenvalues --   -0.48955  -0.48003  -0.47961  -0.44946  -0.43939
 Alpha  occ. eigenvalues --   -0.37669  -0.36730  -0.36718  -0.35733
 Alpha virt. eigenvalues --    0.04781   0.05819   0.10909   0.11910   0.16264
 Alpha virt. eigenvalues --    0.17246   0.20851   0.21898   0.26408   0.27391
 Alpha virt. eigenvalues --    0.28462   0.28688   0.30718   0.31154   0.32592

 Mulliken charges:
               1
     1  C   -0.170950
     2  C   -0.218312
     3  C   -0.176520
     4  C    0.157239
     5  C   -0.169975
     6  C   -0.218096
     7  H    0.226502
     8  H    0.222279
     9  H    0.272018
    10  H    0.279347
    11  H    0.225580
    12  N    0.485970
    13  O   -0.448260
    14  O   -0.464352
    15  C   -0.171075
    16  C   -0.217791
    17  C   -0.161022
    18  C    0.157228
    19  C   -0.170760
    20  C   -0.219230
    21  H    0.221552
    22  H    0.215843
    23  H    0.277515
    24  H    0.274363
    25  H    0.220799
    26  N    0.487744
    27  O   -0.464551
    28  O   -0.453084
 Sum of Mulliken charges =  -0.00000

 Dipole moment (field-independent basis, Debye):
    X=             -4.0790    Y=              7.8125    Z=             -1.6236  Tot=              8.9616
 Quadrupole moment (field-independent basis, Debye-Ang):
   XX=            -79.9118   YY=           -105.1398   ZZ=           -106.8236
   XY=             10.3961   XZ=             10.0860   YZ=              2.6810

 Normal termination of Gaussian 16 at Fri May  7 08:05:56 2021.
