 Gaussian 16, Revision A.03,
 Gaussian 16:  EM64L-G16RevA.03 25-Dec-2016

 -------------
 #p 6-31g* mp2
 -------------

 ------------------------------------------------------
 Input file generated by CHIRIPA (05-May-2021 14:55:23)
 ------------------------------------------------------
 Symbolic Z-matrix:
 Charge =  0 Multiplicity = 1

                         Standard orientation:
 ---------------------------------------------------------------------
 Center     Atomic      Atomic             Coordinates (Angstroms)
 Number     Number       Type             X           Y           Z
 ---------------------------------------------------------------------
      1          6           0       -1.023204    0.336530    2.415500
      2          6           0       -1.604560    1.326000    1.615815
      3          6           0       -2.267610    0.984455    0.433334
      4          6           0       -2.330635   -0.362348    0.079161
      5          6           0       -1.761444   -1.371204    0.854738
      6          6           0       -1.103361   -1.006546    2.033084
      7          1           0       -0.510060    0.610828    3.332473
      8          1           0       -1.543866    2.369851    1.910322
      9          1           0       -2.726524    1.730154   -0.204434
     10          1           0       -1.838355   -2.403325    0.535004
     11          1           0       -0.652800   -1.777111    2.652172
     12          7           0       -3.029948   -0.736161   -1.170490
     13          8           0       -3.071620   -1.929824   -1.460436
     14          8           0       -3.523155    0.171586   -1.836357
     15          6           0        2.931707   -0.302263   -0.045646
     16          6           0        4.133501   -1.066715   -0.601783
     17          6           0        4.312462   -2.439676    0.046865
     18          1           0        3.051061   -0.183712    1.040008
     19          1           0        2.023060   -0.901396   -0.196626
     20          1           0        5.039419   -0.465712   -0.451044
     21          1           0        4.011364   -1.183292   -1.686269
     22          1           0        3.425607   -3.060835   -0.115156
     23          1           0        4.459504   -2.339177    1.127087
     24          1           0        5.177234   -2.968844   -0.365458
     25          6           0        2.739666    1.072156   -0.684257
     26          6           0        1.537872    1.836608   -0.128118
     27          6           0        1.358911    3.209568   -0.776767
     28          1           0        3.648313    1.671289   -0.533276
     29          1           0        2.620311    0.953605   -1.769910
     30          1           0        1.660009    1.953185    0.956367
     31          1           0        0.631953    1.235605   -0.278858
     32          1           0        1.211869    3.109070   -1.856990
     33          1           0        2.245766    3.830728   -0.614746
     34          1           0        0.494139    3.738736   -0.364444
 ---------------------------------------------------------------------

 SCF Done:  E(RHF) =  -669.534678437     A.U. after   15 cycles
 E2 =    -0.2093935410D+01 EUMP2 =    -0.67162861384723D+03

 The electronic state is 1-A.
 Alpha  occ. eigenvalues --  -20.60833 -20.60828 -15.85887 -11.31274 -11.27833
 Alpha  occ. eigenvalues --  -11.27791 -11.27525 -11.26845 -11.26801 -11.21809
 Alpha  occ. eigenvalues --  -11.21754 -11.21636 -11.21548 -11.21393 -11.21329
 Alpha  occ. eigenvalues --   -1.59910  -1.39462  -1.19438  -1.08827  -1.08645
 Alpha  occ. eigenvalues --   -1.04840  -1.03770  -0.96239  -0.95653  -0.87252
 Alpha  occ. eigenvalues --   -0.86223  -0.82483  -0.79838  -0.78479  -0.77534
 Alpha  occ. eigenvalues --   -0.72102  -0.71236  -0.70521  -0.65292  -0.65075
 Alpha  occ. eigenvalues --   -0.64823  -0.62178  -0.61177  -0.59639  -0.57872
 Alpha  occ. eigenvalues --   -0.55525  -0.55316  -0.53303  -0.52928  -0.52871
 Alpha  occ. eigenvalues --   -0.52648  -0.50166  -0.48863  -0.48858  -0.48132
 Alpha  occ. eigenvalues --   -0.46849  -0.46011  -0.45872  -0.44862  -0.44029
 Alpha  occ. eigenvalues --   -0.37368  -0.36361
 Alpha virt. eigenvalues --    0.04969   0.11167   0.16416   0.20809   0.22777
 Alpha virt. eigenvalues --    0.23934   0.26251   0.26520   0.27074   0.28244
 Alpha virt. eigenvalues --    0.28426   0.30433   0.31133   0.31678   0.32156

 Mulliken charges:
               1
     1  C   -0.168720
     2  C   -0.213249
     3  C   -0.175189
     4  C    0.159673
     5  C   -0.172699
     6  C   -0.216997
     7  H    0.225699
     8  H    0.223934
     9  H    0.275968
    10  H    0.275836
    11  H    0.224243
    12  N    0.487975
    13  O   -0.460317
    14  O   -0.460114
    15  C   -0.297866
    16  C   -0.299827
    17  C   -0.475692
    18  H    0.144353
    19  H    0.150629
    20  H    0.151952
    21  H    0.154571
    22  H    0.154854
    23  H    0.152544
    24  H    0.161837
    25  C   -0.298738
    26  C   -0.301924
    27  C   -0.475565
    28  H    0.148446
    29  H    0.152447
    30  H    0.142712
    31  H    0.162126
    32  H    0.159705
    33  H    0.155476
    34  H    0.151918
 Sum of Mulliken charges =  -0.00000

 Dipole moment (field-independent basis, Debye):
    X=              2.4089    Y=              1.2695    Z=              4.3760  Tot=              5.1540
 Quadrupole moment (field-independent basis, Debye-Ang):
   XX=           -106.7012   YY=            -92.2436   ZZ=            -94.0485
   XY=             -4.7360   XZ=             -9.8291   YZ=             -1.7945

 Normal termination of Gaussian 16 at Thu May  6 06:18:58 2021.
