 Gaussian 16, Revision A.03,
 Gaussian 16:  EM64L-G16RevA.03 25-Dec-2016

 -------------
 #p 6-31g* mp2
 -------------

 ------------------------------------------------------
 Input file generated by CHIRIPA (05-May-2021 14:55:19)
 ------------------------------------------------------
 Symbolic Z-matrix:
 Charge =  0 Multiplicity = 1

                         Standard orientation:
 ---------------------------------------------------------------------
 Center     Atomic      Atomic             Coordinates (Angstroms)
 Number     Number       Type             X           Y           Z
 ---------------------------------------------------------------------
      1          6           0        1.601456   -1.583460    2.107899
      2          6           0        1.012952   -1.959998    0.896122
      3          6           0        1.262154   -1.231528   -0.270830
      4          6           0        2.108750   -0.127019   -0.189430
      5          6           0        2.710041    0.273219    1.002857
      6          6           0        2.446632   -0.470017    2.157312
      7          1           0        1.402353   -2.155089    3.009561
      8          1           0        0.356159   -2.824266    0.854772
      9          1           0        0.819745   -1.500898   -1.222214
     10          1           0        3.360354    1.139483    1.012727
     11          1           0        2.905055   -0.175272    3.097003
     12          7           0        2.380088    0.651996   -1.418215
     13          8           0        3.129664    1.621085   -1.320034
     14          8           0        1.838050    0.278748   -2.456250
     15          6           0       -2.407546    1.041215   -0.151930
     16          6           0       -2.640398    1.988829    1.025266
     17          6           0       -2.166268    3.414094    0.739586
     18          1           0       -1.337263    1.030414   -0.399561
     19          1           0       -2.929155    1.431731   -1.036700
     20          1           0       -2.119647    1.595918    1.907908
     21          1           0       -3.710225    1.997229    1.270246
     22          1           0       -2.694126    3.829696   -0.124845
     23          1           0       -1.094511    3.426106    0.516441
     24          1           0       -2.342267    4.074644    1.594313
     25          6           0       -2.876370   -0.387366    0.118425
     26          6           0       -2.643519   -1.334980   -1.058772
     27          6           0       -3.117649   -2.760245   -0.773093
     28          1           0       -2.354762   -0.777882    1.003194
     29          1           0       -3.946654   -0.376565    0.366054
     30          1           0       -1.573692   -1.343379   -1.303752
     31          1           0       -3.164269   -0.942069   -1.941414
     32          1           0       -4.189406   -2.772257   -0.549946
     33          1           0       -2.589791   -3.175847    0.091339
     34          1           0       -2.941649   -3.420795   -1.627819
 ---------------------------------------------------------------------

 SCF Done:  E(RHF) =  -669.535327990     A.U. after   15 cycles
 E2 =    -0.2093548642D+01 EUMP2 =    -0.67162887663161D+03

 The electronic state is 1-A.
 Alpha  occ. eigenvalues --  -20.60851 -20.60845 -15.85905 -11.31301 -11.27866
 Alpha  occ. eigenvalues --  -11.27863 -11.27608 -11.26887 -11.26873 -11.21958
 Alpha  occ. eigenvalues --  -11.21625 -11.21617 -11.21608 -11.21377 -11.20983
 Alpha  occ. eigenvalues --   -1.59925  -1.39477  -1.19476  -1.08861  -1.08598
 Alpha  occ. eigenvalues --   -1.04882  -1.03731  -0.96171  -0.95692  -0.87188
 Alpha  occ. eigenvalues --   -0.86275  -0.82520  -0.79803  -0.78380  -0.77564
 Alpha  occ. eigenvalues --   -0.72119  -0.71252  -0.70585  -0.65292  -0.65100
 Alpha  occ. eigenvalues --   -0.64875  -0.62280  -0.61080  -0.59552  -0.57770
 Alpha  occ. eigenvalues --   -0.55490  -0.55357  -0.53196  -0.52996  -0.52865
 Alpha  occ. eigenvalues --   -0.52584  -0.50116  -0.48881  -0.48874  -0.48104
 Alpha  occ. eigenvalues --   -0.46839  -0.45920  -0.45837  -0.44863  -0.43957
 Alpha  occ. eigenvalues --   -0.37441  -0.36445
 Alpha virt. eigenvalues --    0.04934   0.11061   0.16349   0.19700   0.22976
 Alpha virt. eigenvalues --    0.23851   0.25586   0.26074   0.27406   0.28328
 Alpha virt. eigenvalues --    0.28819   0.29898   0.31377   0.31596   0.32520

 Mulliken charges:
               1
     1  C   -0.171457
     2  C   -0.219730
     3  C   -0.173100
     4  C    0.158493
     5  C   -0.171183
     6  C   -0.218215
     7  H    0.226337
     8  H    0.226500
     9  H    0.278792
    10  H    0.276093
    11  H    0.224031
    12  N    0.487721
    13  O   -0.460046
    14  O   -0.459848
    15  C   -0.299087
    16  C   -0.299767
    17  C   -0.476013
    18  H    0.152089
    19  H    0.152436
    20  H    0.149426
    21  H    0.150989
    22  H    0.157178
    23  H    0.157899
    24  H    0.158953
    25  C   -0.297958
    26  C   -0.303006
    27  C   -0.476617
    28  H    0.145683
    29  H    0.150051
    30  H    0.148383
    31  H    0.157959
    32  H    0.158989
    33  H    0.146100
    34  H    0.161926
 Sum of Mulliken charges =  -0.00000

 Dipole moment (field-independent basis, Debye):
    X=             -0.9360    Y=             -2.6637    Z=              4.2784  Tot=              5.1260
 Quadrupole moment (field-independent basis, Debye-Ang):
   XX=            -96.5601   YY=            -93.8012   ZZ=            -95.3083
   XY=             -4.2441   XZ=             11.8745   YZ=              1.6628

 Normal termination of Gaussian 16 at Thu May  6 17:23:21 2021.
