 Gaussian 16, Revision A.03,
 Gaussian 16:  EM64L-G16RevA.03 25-Dec-2016

 -------------
 #p 6-31g* mp2
 -------------

 ------------------------------------------------------
 Input file generated by CHIRIPA (05-May-2021 14:53:17)
 ------------------------------------------------------
 Symbolic Z-matrix:
 Charge =  0 Multiplicity = 1

                         Standard orientation:
 ---------------------------------------------------------------------
 Center     Atomic      Atomic             Coordinates (Angstroms)
 Number     Number       Type             X           Y           Z
 ---------------------------------------------------------------------
      1          6           0       -3.287757    0.183307   -0.536963
      2          6           0       -3.311092   -1.190656    0.133609
      3          6           0       -4.180521   -2.200005   -0.616791
      4          1           0       -4.315034    0.565625   -0.610990
      5          1           0       -2.919646    0.074866   -1.566589
      6          1           0       -3.677741   -1.079457    1.162113
      7          1           0       -2.283620   -1.569663    0.206222
      8          1           0       -3.813182   -2.340372   -1.638534
      9          1           0       -5.215223   -1.847381   -0.677212
     10          1           0       -4.182934   -3.175301   -0.120152
     11          6           0       -2.422793    1.203224    0.201505
     12          6           0       -2.399458    2.577187   -0.469066
     13          6           0       -1.530028    3.586536    0.281334
     14          1           0       -2.790904    1.311666    1.231131
     15          1           0       -1.395516    0.820906    0.275532
     16          1           0       -3.426929    2.956194   -0.541679
     17          1           0       -2.032809    2.465988   -1.497570
     18          1           0       -0.495327    3.233913    0.341755
     19          1           0       -1.897368    3.726904    1.303077
     20          1           0       -1.527616    4.561833   -0.215306
     21          6           0        0.363094   -2.018177    0.966379
     22          6           0        0.951000   -2.269467   -0.277703
     23          6           0        1.986495   -1.457874   -0.750585
     24          6           0        2.411235   -0.398865    0.050281
     25          6           0        1.845584   -0.122884    1.294130
     26          6           0        0.811472   -0.947575    1.746949
     27          1           0       -0.440766   -2.653729    1.325932
     28          1           0        0.604817   -3.100201   -0.886047
     29          1           0        2.459362   -1.629812   -1.709883
     30          1           0        2.212106    0.712697    1.877983
     31          1           0        0.356755   -0.750051    2.713522
     32          7           0        3.506735    0.467264   -0.439718
     33          8           0        3.862839    1.393952    0.284904
     34          8           0        3.988541    0.203049   -1.539123
 ---------------------------------------------------------------------

 SCF Done:  E(RHF) =  -669.534806460     A.U. after   15 cycles
 E2 =    -0.2093823322D+01 EUMP2 =    -0.67162862978128D+03

 The electronic state is 1-A.
 Alpha  occ. eigenvalues --  -20.60850 -20.60845 -15.85906 -11.31305 -11.27880
 Alpha  occ. eigenvalues --  -11.27872 -11.27595 -11.26892 -11.26879 -11.22225
 Alpha  occ. eigenvalues --  -11.21807 -11.21765 -11.21737 -11.21618 -11.21163
 Alpha  occ. eigenvalues --   -1.59926  -1.39478  -1.19491  -1.08915  -1.08778
 Alpha  occ. eigenvalues --   -1.04888  -1.03925  -0.96354  -0.95707  -0.87373
 Alpha  occ. eigenvalues --   -0.86279  -0.82534  -0.80023  -0.78623  -0.77566
 Alpha  occ. eigenvalues --   -0.72122  -0.71252  -0.70608  -0.65460  -0.65132
 Alpha  occ. eigenvalues --   -0.64871  -0.62225  -0.61328  -0.59763  -0.57975
 Alpha  occ. eigenvalues --   -0.55654  -0.55378  -0.53312  -0.53020  -0.52969
 Alpha  occ. eigenvalues --   -0.52777  -0.50298  -0.48885  -0.48875  -0.48323
 Alpha  occ. eigenvalues --   -0.47059  -0.46149  -0.46034  -0.44876  -0.44155
 Alpha  occ. eigenvalues --   -0.37363  -0.36472
 Alpha virt. eigenvalues --    0.04917   0.11104   0.16317   0.20815   0.22759
 Alpha virt. eigenvalues --    0.23846   0.26248   0.26695   0.27213   0.27641
 Alpha virt. eigenvalues --    0.28512   0.30525   0.31195   0.31604   0.32110

 Mulliken charges:
               1
     1  C   -0.296474
     2  C   -0.306621
     3  C   -0.475542
     4  H    0.150825
     5  H    0.150780
     6  H    0.149568
     7  H    0.149776
     8  H    0.155617
     9  H    0.158767
    10  H    0.156413
    11  C   -0.304868
    12  C   -0.299751
    13  C   -0.476282
    14  H    0.145440
    15  H    0.156483
    16  H    0.151661
    17  H    0.153828
    18  H    0.157074
    19  H    0.152938
    20  H    0.162900
    21  C   -0.169744
    22  C   -0.219513
    23  C   -0.170757
    24  C    0.158629
    25  C   -0.172357
    26  C   -0.217840
    27  H    0.228636
    28  H    0.224506
    29  H    0.276090
    30  H    0.276504
    31  H    0.225381
    32  N    0.488036
    33  O   -0.460016
    34  O   -0.460088
 Sum of Mulliken charges =  -0.00000

 Dipole moment (field-independent basis, Debye):
    X=             -3.7671    Y=             -3.0147    Z=              1.7069  Tot=              5.1179
 Quadrupole moment (field-independent basis, Debye-Ang):
   XX=           -114.0574   YY=            -91.9103   ZZ=            -91.1044
   XY=             -6.8929   XZ=              3.1976   YZ=              1.4770

 Normal termination of Gaussian 16 at Thu May  6 18:57:36 2021.
