 Gaussian 16, Revision A.03,
 Gaussian 16:  EM64L-G16RevA.03 25-Dec-2016

 -------------
 #p 6-31g* mp2
 -------------

 ------------------------------------------------------
 Input file generated by CHIRIPA (05-May-2021 14:55:20)
 ------------------------------------------------------
 Symbolic Z-matrix:
 Charge =  0 Multiplicity = 1

                         Standard orientation:
 ---------------------------------------------------------------------
 Center     Atomic      Atomic             Coordinates (Angstroms)
 Number     Number       Type             X           Y           Z
 ---------------------------------------------------------------------
      1          6           0        4.992406    0.239420   -0.197142
      2          6           0        4.245347   -0.113802   -1.325706
      3          6           0        2.908320   -0.502226   -1.199080
      4          6           0        2.347617   -0.526241    0.076979
      5          6           0        3.065818   -0.180016    1.220484
      6          6           0        4.401299    0.205247    1.070117
      7          1           0        6.030440    0.539930   -0.304729
      8          1           0        4.701797   -0.088191   -2.311121
      9          1           0        2.306931   -0.780708   -2.055933
     10          1           0        2.583292   -0.215325    2.189680
     11          1           0        4.979060    0.479037    1.948341
     12          7           0        0.932985   -0.935775    0.223599
     13          8           0        0.462233   -0.948677    1.358880
     14          8           0        0.321734   -1.236111   -0.799538
     15          6           0       -2.635045    0.921661   -0.225377
     16          6           0       -2.601523    2.407994    0.131936
     17          6           0       -1.257924    3.063115   -0.189547
     18          1           0       -1.833188    0.402455    0.317204
     19          1           0       -2.415387    0.803916   -1.295556
     20          1           0       -2.822543    2.522999    1.200832
     21          1           0       -3.403675    2.923689   -0.411412
     22          1           0       -1.033546    2.977862   -1.257717
     23          1           0       -0.449112    2.574897    0.363687
     24          1           0       -1.256028    4.125430    0.073785
     25          6           0       -3.971715    0.252728    0.090174
     26          6           0       -4.005237   -1.233607   -0.267139
     27          6           0       -5.348836   -1.888728    0.054344
     28          1           0       -4.191372    0.370472    1.160353
     29          1           0       -4.773572    0.771932   -0.452407
     30          1           0       -3.203084   -1.749301    0.276209
     31          1           0       -3.784217   -1.348612   -1.336036
     32          1           0       -6.157647   -1.400508   -0.498891
     33          1           0       -5.573212   -1.803474    1.122514
     34          1           0       -5.350731   -2.951042   -0.208988
 ---------------------------------------------------------------------

 SCF Done:  E(RHF) =  -669.536652421     A.U. after   15 cycles
 E2 =    -0.2092503832D+01 EUMP2 =    -0.67162915625343D+03

 The electronic state is 1-A.
 Alpha  occ. eigenvalues --  -20.61088 -20.61077 -15.86071 -11.31357 -11.27909
 Alpha  occ. eigenvalues --  -11.27902 -11.27635 -11.26900 -11.26890 -11.20528
 Alpha  occ. eigenvalues --  -11.20337 -11.20092 -11.20005 -11.19911 -11.19710
 Alpha  occ. eigenvalues --   -1.60119  -1.39675  -1.19513  -1.08927  -1.07066
 Alpha  occ. eigenvalues --   -1.04900  -1.02348  -0.95777  -0.94815  -0.86303
 Alpha  occ. eigenvalues --   -0.85851  -0.82614  -0.78383  -0.77676  -0.76822
 Alpha  occ. eigenvalues --   -0.72285  -0.71424  -0.70622  -0.65168  -0.64905
 Alpha  occ. eigenvalues --   -0.63693  -0.62248  -0.59755  -0.58198  -0.56419
 Alpha  occ. eigenvalues --   -0.55410  -0.54121  -0.53232  -0.52992  -0.51582
 Alpha  occ. eigenvalues --   -0.51262  -0.49152  -0.49060  -0.48749  -0.46706
 Alpha  occ. eigenvalues --   -0.45408  -0.45100  -0.44341  -0.44152  -0.42531
 Alpha  occ. eigenvalues --   -0.37482  -0.36497
 Alpha virt. eigenvalues --    0.04812   0.11158   0.16321   0.21292   0.24180
 Alpha virt. eigenvalues --    0.25307   0.27218   0.27924   0.28163   0.28692
 Alpha virt. eigenvalues --    0.29405   0.30930   0.32239   0.32493   0.32803

 Mulliken charges:
               1
     1  C   -0.170262
     2  C   -0.218576
     3  C   -0.170382
     4  C    0.160785
     5  C   -0.170877
     6  C   -0.218521
     7  H    0.226280
     8  H    0.224089
     9  H    0.276034
    10  H    0.275802
    11  H    0.224062
    12  N    0.487182
    13  O   -0.461591
    14  O   -0.456684
    15  C   -0.307649
    16  C   -0.298115
    17  C   -0.474005
    18  H    0.175288
    19  H    0.147820
    20  H    0.149689
    21  H    0.146934
    22  H    0.152671
    23  H    0.151330
    24  H    0.155397
    25  C   -0.297460
    26  C   -0.300196
    27  C   -0.475269
    28  H    0.146236
    29  H    0.142338
    30  H    0.166653
    31  H    0.150777
    32  H    0.150329
    33  H    0.152544
    34  H    0.157349
 Sum of Mulliken charges =  -0.00000

 Dipole moment (field-independent basis, Debye):
    X=              5.3617    Y=              1.2157    Z=             -0.5046  Tot=              5.5209
 Quadrupole moment (field-independent basis, Debye-Ang):
   XX=            -73.9693   YY=            -98.1436   ZZ=            -89.1044
   XY=              0.5565   XZ=             -0.1520   YZ=              1.0826

 Normal termination of Gaussian 16 at Thu May  6 02:55:51 2021.
