 Gaussian 16, Revision A.03,
 Gaussian 16:  EM64L-G16RevA.03 25-Dec-2016

 -------------
 #p 6-31g* mp2
 -------------

 ------------------------------------------------------
 Input file generated by CHIRIPA (05-May-2021 14:57:23)
 ------------------------------------------------------
 Symbolic Z-matrix:
 Charge =  0 Multiplicity = 1

                         Standard orientation:
 ---------------------------------------------------------------------
 Center     Atomic      Atomic             Coordinates (Angstroms)
 Number     Number       Type             X           Y           Z
 ---------------------------------------------------------------------
      1          6           0        1.961559    0.242101    0.728582
      2          6           0        2.824611    1.335379    0.600494
      3          6           0        4.156484    1.147694    0.219133
      4          6           0        4.593810   -0.152777   -0.027469
      5          6           0        3.758295   -1.262301    0.091522
      6          6           0        2.430329   -1.050970    0.474135
      7          1           0        0.928445    0.397084    1.025319
      8          1           0        2.463307    2.340719    0.797461
      9          1           0        4.846129    1.976191    0.112360
     10          1           0        4.147426   -2.252631   -0.111558
     11          1           0        1.762324   -1.901898    0.572812
     12          7           0        6.001736   -0.363987   -0.431862
     13          8           0        6.362567   -1.519701   -0.643434
     14          8           0        6.717779    0.630180   -0.529596
     15          6           0       -2.153628    1.270202    0.363810
     16          6           0       -2.717766    0.469311    1.362231
     17          6           0       -3.940782   -0.173893    1.149942
     18          6           0       -4.575242    0.006572   -0.078139
     19          6           0       -4.038714    0.798075   -1.092512
     20          6           0       -2.814738    1.431743   -0.858220
     21          1           0       -1.203186    1.766154    0.537268
     22          1           0       -2.206580    0.342051    2.312252
     23          1           0       -4.400052   -0.799603    1.905571
     24          1           0       -4.571894    0.905911   -2.029267
     25          1           0       -2.378982    2.053128   -1.635422
     26          7           0       -5.870502   -0.669311   -0.314527
     27          8           0       -6.409534   -0.494260   -1.405141
     28          8           0       -6.322172   -1.361323    0.595282
 ---------------------------------------------------------------------

 SCF Done:  E(RHF) =  -868.336459769     A.U. after   16 cycles
 E2 =    -0.2599919310D+01 EUMP2 =    -0.87093637907958D+03

 The electronic state is 1-A.
 Alpha  occ. eigenvalues --  -20.61409 -20.61402 -20.61264 -20.61257 -15.86466
 Alpha  occ. eigenvalues --  -15.86321 -11.32015 -11.31826 -11.28601 -11.28560
 Alpha  occ. eigenvalues --  -11.28493 -11.28418 -11.28377 -11.28283 -11.27739
 Alpha  occ. eigenvalues --  -11.27651 -11.27535 -11.27451  -1.60479  -1.60335
 Alpha  occ. eigenvalues --   -1.40027  -1.39885  -1.20213  -1.20022  -1.09607
 Alpha  occ. eigenvalues --   -1.09415  -1.05629  -1.05438  -0.96412  -0.96216
 Alpha  occ. eigenvalues --   -0.87036  -0.86845  -0.83227  -0.83036  -0.78208
 Alpha  occ. eigenvalues --   -0.78044  -0.72682  -0.72538  -0.71803  -0.71660
 Alpha  occ. eigenvalues --   -0.71593  -0.71016  -0.65875  -0.65686  -0.65647
 Alpha  occ. eigenvalues --   -0.65451  -0.62959  -0.62775  -0.56457  -0.55809
 Alpha  occ. eigenvalues --   -0.53952  -0.53765  -0.53727  -0.53540  -0.49456
 Alpha  occ. eigenvalues --   -0.49424  -0.49309  -0.49283  -0.45391  -0.45258
 Alpha  occ. eigenvalues --   -0.38263  -0.38032  -0.37220  -0.37031
 Alpha virt. eigenvalues --    0.04260   0.04501   0.10366   0.10604   0.15562
 Alpha virt. eigenvalues --    0.15968   0.18165   0.21889   0.25211   0.25961
 Alpha virt. eigenvalues --    0.27044   0.29253   0.30236   0.30600   0.32233

 Mulliken charges:
               1
     1  C   -0.173227
     2  C   -0.219444
     3  C   -0.170061
     4  C    0.159236
     5  C   -0.170047
     6  C   -0.218638
     7  H    0.218305
     8  H    0.219912
     9  H    0.277238
    10  H    0.278117
    11  H    0.226367
    12  N    0.487905
    13  O   -0.458315
    14  O   -0.459135
    15  C   -0.173847
    16  C   -0.220689
    17  C   -0.170081
    18  C    0.159705
    19  C   -0.170117
    20  C   -0.217434
    21  H    0.217896
    22  H    0.221724
    23  H    0.277978
    24  H    0.278699
    25  H    0.226432
    26  N    0.487867
    27  O   -0.457798
    28  O   -0.458546
 Sum of Mulliken charges =  -0.00000

 Dipole moment (field-independent basis, Debye):
    X=             -0.4810    Y=              3.0086    Z=              2.1280  Tot=              3.7164
 Quadrupole moment (field-independent basis, Debye-Ang):
   XX=           -191.3170   YY=            -99.9512   ZZ=           -101.7376
   XY=             -6.0128   XZ=              2.9069   YZ=             -2.4121

 Normal termination of Gaussian 16 at Thu May  6 21:11:14 2021.
