 Gaussian 16, Revision A.03,
 Gaussian 16:  EM64L-G16RevA.03 25-Dec-2016

 -------------
 #p 6-31g* mp2
 -------------

 ------------------------------------------------------
 Input file generated by CHIRIPA (05-May-2021 14:53:13)
 ------------------------------------------------------
 Symbolic Z-matrix:
 Charge =  0 Multiplicity = 1

                         Standard orientation:
 ---------------------------------------------------------------------
 Center     Atomic      Atomic             Coordinates (Angstroms)
 Number     Number       Type             X           Y           Z
 ---------------------------------------------------------------------
      1          6           0       -4.541241    0.422521    0.376281
      2          6           0       -3.494698    1.044408   -0.548916
      3          6           0       -2.259815    1.540128    0.204157
      4          1           0       -4.842245    1.163562    1.129407
      5          1           0       -4.085191   -0.413197    0.924906
      6          1           0       -3.952968    1.877828   -1.096653
      7          1           0       -3.196291    0.301861   -1.300045
      8          1           0       -1.776708    0.714930    0.737315
      9          1           0       -2.537685    2.299851    0.941863
     10          1           0       -1.524673    1.980924   -0.476377
     11          6           0       -5.781633   -0.077771   -0.361867
     12          6           0       -6.828176   -0.699658    0.563330
     13          6           0       -8.063059   -1.195378   -0.189743
     14          1           0       -6.237683    0.757947   -0.910492
     15          1           0       -5.480629   -0.818812   -1.114993
     16          1           0       -7.126583    0.042889    1.314458
     17          1           0       -6.369906   -1.533078    1.111066
     18          1           0       -7.785190   -1.955101   -0.927449
     19          1           0       -8.546166   -0.370180   -0.722901
     20          1           0       -8.798201   -1.636174    0.490790
     21          6           0        1.536499    0.232581   -0.046433
     22          6           0        2.053195   -1.067108   -0.065197
     23          6           0        3.434380   -1.282465   -0.042887
     24          6           0        4.273664   -0.170172   -0.001685
     25          6           0        3.789375    1.136875    0.017878
     26          6           0        2.404707    1.328493   -0.005028
     27          1           0        0.462208    0.390656   -0.063996
     28          1           0        1.381314   -1.920095   -0.097348
     29          1           0        3.861310   -2.277935   -0.056647
     30          1           0        4.484219    1.967284    0.049978
     31          1           0        2.006256    2.338971    0.009625
     32          7           0        5.737707   -0.385596    0.022249
     33          8           0        6.455944    0.611128    0.058505
     34          8           0        6.139265   -1.547088    0.004299
 ---------------------------------------------------------------------

 SCF Done:  E(RHF) =  -669.535346095     A.U. after   15 cycles
 E2 =    -0.2091069592D+01 EUMP2 =    -0.67162641568645D+03

 The electronic state is 1-A.
 Alpha  occ. eigenvalues --  -20.60692 -20.60687 -15.85746 -11.31087 -11.27664
 Alpha  occ. eigenvalues --  -11.27659 -11.27300 -11.26658 -11.26645 -11.22679
 Alpha  occ. eigenvalues --  -11.22511 -11.22245 -11.22172 -11.22055 -11.21544
 Alpha  occ. eigenvalues --   -1.59768  -1.39322  -1.19256  -1.09254  -1.08646
 Alpha  occ. eigenvalues --   -1.04662  -1.04401  -0.96882  -0.95486  -0.87907
 Alpha  occ. eigenvalues --   -0.86055  -0.82329  -0.80475  -0.79008  -0.77383
 Alpha  occ. eigenvalues --   -0.71963  -0.71092  -0.70374  -0.65882  -0.64904
 Alpha  occ. eigenvalues --   -0.64672  -0.62016  -0.61806  -0.60292  -0.58446
 Alpha  occ. eigenvalues --   -0.56297  -0.55083  -0.53521  -0.53290  -0.52985
 Alpha  occ. eigenvalues --   -0.52751  -0.50783  -0.48780  -0.48720  -0.48717
 Alpha  occ. eigenvalues --   -0.47478  -0.46563  -0.46455  -0.44734  -0.44633
 Alpha  occ. eigenvalues --   -0.37221  -0.36275
 Alpha virt. eigenvalues --    0.05151   0.11379   0.16625   0.20208   0.22383
 Alpha virt. eigenvalues --    0.23793   0.25774   0.26310   0.26537   0.27183
 Alpha virt. eigenvalues --    0.29499   0.29880   0.30911   0.31244   0.31845

 Mulliken charges:
               1
     1  C   -0.299291
     2  C   -0.299900
     3  C   -0.484410
     4  H    0.151948
     5  H    0.149357
     6  H    0.156619
     7  H    0.152297
     8  H    0.151650
     9  H    0.163098
    10  H    0.156818
    11  C   -0.298959
    12  C   -0.300209
    13  C   -0.476134
    14  H    0.151156
    15  H    0.150126
    16  H    0.153001
    17  H    0.152220
    18  H    0.155670
    19  H    0.156065
    20  H    0.161948
    21  C   -0.178565
    22  C   -0.221648
    23  C   -0.170587
    24  C    0.157949
    25  C   -0.170729
    26  C   -0.222401
    27  H    0.240189
    28  H    0.222735
    29  H    0.275084
    30  H    0.275182
    31  H    0.223220
    32  N    0.488045
    33  O   -0.460747
    34  O   -0.460797
 Sum of Mulliken charges =  -0.00000

 Dipole moment (field-independent basis, Debye):
    X=             -5.4980    Y=              0.8036    Z=             -0.0766  Tot=              5.5570
 Quadrupole moment (field-independent basis, Debye-Ang):
   XX=           -139.1289   YY=            -89.3295   ZZ=            -95.8118
   XY=              4.0625   XZ=             -0.7754   YZ=              0.1412

 Normal termination of Gaussian 16 at Thu May  6 08:55:06 2021.
