 Gaussian 16, Revision A.03,
 Gaussian 16:  EM64L-G16RevA.03 25-Dec-2016

 -------------
 #p 6-31g* mp2
 -------------

 ------------------------------------------------------
 Input file generated by CHIRIPA (05-May-2021 14:57:22)
 ------------------------------------------------------
 Symbolic Z-matrix:
 Charge =  0 Multiplicity = 1

                         Standard orientation:
 ---------------------------------------------------------------------
 Center     Atomic      Atomic             Coordinates (Angstroms)
 Number     Number       Type             X           Y           Z
 ---------------------------------------------------------------------
      1          6           0       -6.166710    0.360030    0.608458
      2          6           0       -5.304843    1.455779    0.722658
      3          6           0       -3.955155    1.336423    0.378209
      4          6           0       -3.498999    0.101019   -0.078944
      5          6           0       -4.332832   -1.009139   -0.203700
      6          6           0       -5.678814   -0.866768    0.146458
      7          1           0       -7.213741    0.461688    0.878252
      8          1           0       -5.680979    2.409739    1.081161
      9          1           0       -3.265984    2.168447    0.456934
     10          1           0       -3.928694   -1.947313   -0.564143
     11          1           0       -6.345851   -1.719446    0.056755
     12          7           0       -2.072107   -0.037520   -0.446619
     13          8           0       -1.694873   -1.136703   -0.846781
     14          8           0       -1.357960    0.955699   -0.327678
     15          6           0        6.031636    0.822813    0.455829
     16          6           0        5.275941    1.290354   -0.624381
     17          6           0        4.001776    0.773056   -0.876283
     18          6           0        3.512058   -0.215372   -0.023947
     19          6           0        4.240697   -0.701779    1.060388
     20          6           0        5.512518   -0.170010    1.293288
     21          1           0        7.020527    1.230283    0.644132
     22          1           0        5.676551    2.061323   -1.276424
     23          1           0        3.395318    1.116845   -1.705402
     24          1           0        3.814556   -1.471048    1.692879
     25          1           0        6.097156   -0.535012    2.132942
     26          7           0        2.164397   -0.770671   -0.280568
     27          8           0        1.755575   -1.640862    0.485115
     28          8           0        1.542441   -0.325209   -1.242529
 ---------------------------------------------------------------------

 SCF Done:  E(RHF) =  -868.333730596     A.U. after   16 cycles
 E2 =    -0.2601604459D+01 EUMP2 =    -0.87093533505452D+03

 The electronic state is 1-A.
 Alpha  occ. eigenvalues --  -20.59315 -20.59230 -20.59143 -20.59000 -15.84373
 Alpha  occ. eigenvalues --  -15.84157 -11.30251 -11.30086 -11.26899 -11.26862
 Alpha  occ. eigenvalues --  -11.26739 -11.26723 -11.26704 -11.26582 -11.26024
 Alpha  occ. eigenvalues --  -11.26000 -11.25880 -11.25860  -1.58331  -1.58122
 Alpha  occ. eigenvalues --   -1.37885  -1.37677  -1.18471  -1.18313  -1.07769
 Alpha  occ. eigenvalues --   -1.07598  -1.03952  -1.03802  -0.94528  -0.94321
 Alpha  occ. eigenvalues --   -0.85327  -0.85175  -0.81360  -0.81180  -0.76308
 Alpha  occ. eigenvalues --   -0.76127  -0.70575  -0.70364  -0.69719  -0.69581
 Alpha  occ. eigenvalues --   -0.69468  -0.69421  -0.64112  -0.63977  -0.63939
 Alpha  occ. eigenvalues --   -0.63811  -0.61297  -0.61146  -0.54445  -0.54289
 Alpha  occ. eigenvalues --   -0.52253  -0.52101  -0.52053  -0.51906  -0.47830
 Alpha  occ. eigenvalues --   -0.47279  -0.47092  -0.46527  -0.43194  -0.42921
 Alpha  occ. eigenvalues --   -0.36482  -0.36325  -0.35580  -0.35432
 Alpha virt. eigenvalues --    0.06235   0.06426   0.12066   0.12214   0.17640
 Alpha virt. eigenvalues --    0.17818   0.22128   0.22260   0.28002   0.28129
 Alpha virt. eigenvalues --    0.29062   0.29203   0.31635   0.31764   0.33330

 Mulliken charges:
               1
     1  C   -0.172602
     2  C   -0.218479
     3  C   -0.172125
     4  C    0.160077
     5  C   -0.171479
     6  C   -0.218521
     7  H    0.222072
     8  H    0.219865
     9  H    0.273264
    10  H    0.276422
    11  H    0.220792
    12  N    0.486981
    13  O   -0.444155
    14  O   -0.461780
    15  C   -0.172847
    16  C   -0.218686
    17  C   -0.171040
    18  C    0.160585
    19  C   -0.172263
    20  C   -0.218583
    21  H    0.221380
    22  H    0.219997
    23  H    0.276541
    24  H    0.273565
    25  H    0.219459
    26  N    0.487140
    27  O   -0.464639
    28  O   -0.440938
 Sum of Mulliken charges =  -0.00000

 Dipole moment (field-independent basis, Debye):
    X=             -0.3527    Y=              2.3009    Z=              1.9599  Tot=              3.0430
 Quadrupole moment (field-independent basis, Debye-Ang):
   XX=            -41.4735   YY=            -99.9836   ZZ=           -102.8337
   XY=              4.5284   XZ=             -0.5429   YZ=             -1.4971

 Normal termination of Gaussian 16 at Thu May  6 22:39:49 2021.
