 Gaussian 16, Revision A.03,
 Gaussian 16:  EM64L-G16RevA.03 25-Dec-2016

 -------------
 #p 6-31g* mp2
 -------------

 ------------------------------------------------------
 Input file generated by CHIRIPA (05-May-2021 14:57:26)
 ------------------------------------------------------
 Symbolic Z-matrix:
 Charge =  0 Multiplicity = 1

                         Standard orientation:
 ---------------------------------------------------------------------
 Center     Atomic      Atomic             Coordinates (Angstroms)
 Number     Number       Type             X           Y           Z
 ---------------------------------------------------------------------
      1          6           0        3.598634    2.004722   -0.654251
      2          6           0        2.434531    1.866456    0.108814
      3          6           0        1.965392    0.598511    0.464867
      4          6           0        2.688402   -0.514653    0.038943
      5          6           0        3.851561   -0.409558   -0.722179
      6          6           0        4.302193    0.868277   -1.066585
      7          1           0        3.955885    2.993533   -0.926317
      8          1           0        1.886100    2.747266    0.430435
      9          1           0        1.067124    0.462649    1.054846
     10          1           0        4.376788   -1.306212   -1.028066
     11          1           0        5.206559    0.972636   -1.659271
     12          7           0        2.201542   -1.862204    0.409716
     13          8           0        2.856646   -2.827185    0.022048
     14          8           0        1.174054   -1.927918    1.080974
     15          6           0       -1.643626    2.352834    0.947114
     16          6           0       -2.338320    2.419159   -0.265124
     17          6           0       -2.965465    1.283913   -0.787095
     18          6           0       -2.877405    0.093380   -0.067256
     19          6           0       -2.192743   -0.004579    1.143087
     20          6           0       -1.573179    1.143309    1.646119
     21          1           0       -1.159388    3.239631    1.345237
     22          1           0       -2.394683    3.357146   -0.810145
     23          1           0       -3.509873    1.307131   -1.723309
     24          1           0       -2.153975   -0.953789    1.663583
     25          1           0       -1.034362    1.088852    2.587796
     26          7           0       -3.537323   -1.115146   -0.609818
     27          8           0       -3.445036   -2.152036    0.043616
     28          8           0       -4.134359   -1.002613   -1.678239
 ---------------------------------------------------------------------

 SCF Done:  E(RHF) =  -868.336717541     A.U. after   16 cycles
 E2 =    -0.2602389159D+01 EUMP2 =    -0.87093910670037D+03

 The electronic state is 1-A.
 Alpha  occ. eigenvalues --  -20.61000 -20.60976 -20.60616 -20.60572 -15.86044
 Alpha  occ. eigenvalues --  -15.85660 -11.31421 -11.31273 -11.28005 -11.27967
 Alpha  occ. eigenvalues --  -11.27948 -11.27863 -11.27835 -11.27810 -11.27107
 Alpha  occ. eigenvalues --  -11.27031 -11.27025 -11.26994  -1.60053  -1.59667
 Alpha  occ. eigenvalues --   -1.39611  -1.39210  -1.19626  -1.19526  -1.09019
 Alpha  occ. eigenvalues --   -1.08910  -1.05067  -1.04934  -0.95844  -0.95673
 Alpha  occ. eigenvalues --   -0.86479  -0.86327  -0.82689  -0.82489  -0.77756
 Alpha  occ. eigenvalues --   -0.77431  -0.72271  -0.71879  -0.71373  -0.70992
 Alpha  occ. eigenvalues --   -0.70755  -0.70666  -0.65294  -0.65179  -0.65125
 Alpha  occ. eigenvalues --   -0.64929  -0.62481  -0.62193  -0.55577  -0.55546
 Alpha  occ. eigenvalues --   -0.53508  -0.53334  -0.53061  -0.52890  -0.49022
 Alpha  occ. eigenvalues --   -0.49007  -0.48665  -0.48604  -0.45011  -0.44557
 Alpha  occ. eigenvalues --   -0.37623  -0.37614  -0.36645  -0.36489
 Alpha virt. eigenvalues --    0.04822   0.05032   0.10923   0.11041   0.16175
 Alpha virt. eigenvalues --    0.16422   0.19820   0.22064   0.25928   0.26446
 Alpha virt. eigenvalues --    0.28306   0.29476   0.30030   0.31573   0.32514

 Mulliken charges:
               1
     1  C   -0.170314
     2  C   -0.222020
     3  C   -0.172524
     4  C    0.156855
     5  C   -0.169079
     6  C   -0.219152
     7  H    0.224916
     8  H    0.214864
     9  H    0.280998
    10  H    0.277081
    11  H    0.224381
    12  N    0.488509
    13  O   -0.456819
    14  O   -0.464168
    15  C   -0.174173
    16  C   -0.218562
    17  C   -0.169047
    18  C    0.157613
    19  C   -0.158613
    20  C   -0.237950
    21  H    0.220367
    22  H    0.222288
    23  H    0.276843
    24  H    0.288683
    25  H    0.225794
    26  N    0.487981
    27  O   -0.452619
    28  O   -0.462133
 Sum of Mulliken charges =  -0.00000

 Dipole moment (field-independent basis, Debye):
    X=              3.8789    Y=              8.6406    Z=              0.5463  Tot=              9.4870
 Quadrupole moment (field-independent basis, Debye-Ang):
   XX=           -105.8223   YY=           -107.9592   ZZ=           -101.8245
   XY=             -2.6833   XZ=            -10.2503   YZ=             -0.7832

 Normal termination of Gaussian 16 at Thu May  6 21:23:11 2021.
