 Gaussian 16, Revision A.03,
 Gaussian 16:  EM64L-G16RevA.03 25-Dec-2016

 -------------
 #p 6-31g* mp2
 -------------

 ------------------------------------------------------
 Input file generated by CHIRIPA (05-May-2021 14:57:22)
 ------------------------------------------------------
 Symbolic Z-matrix:
 Charge =  0 Multiplicity = 1

                         Standard orientation:
 ---------------------------------------------------------------------
 Center     Atomic      Atomic             Coordinates (Angstroms)
 Number     Number       Type             X           Y           Z
 ---------------------------------------------------------------------
      1          6           0       -3.302376    2.503156    0.334062
      2          6           0       -4.304069    1.752259   -0.289867
      3          6           0       -4.129585    0.383422   -0.514342
      4          6           0       -2.935562   -0.204832   -0.100150
      5          6           0       -1.918914    0.516378    0.524008
      6          6           0       -2.115089    1.883910    0.738295
      7          1           0       -3.446345    3.565994    0.504482
      8          1           0       -5.227158    2.230517   -0.604859
      9          1           0       -4.888618   -0.221656   -0.995141
     10          1           0       -1.009550    0.011641    0.826854
     11          1           0       -1.335437    2.464576    1.223080
     12          7           0       -2.739362   -1.653268   -0.332399
     13          8           0       -1.678294   -2.147894    0.041922
     14          8           0       -3.650364   -2.266499   -0.884359
     15          6           0        3.693769    2.283484   -0.622835
     16          6           0        4.284529    1.161713   -1.213727
     17          6           0        3.890185   -0.127053   -0.842080
     18          6           0        2.897723   -0.257923    0.128068
     19          6           0        2.290196    0.840120    0.735111
     20          6           0        2.700239    2.119397    0.347987
     21          1           0        4.006203    3.280942   -0.917551
     22          1           0        5.056357    1.286129   -1.967948
     23          1           0        4.330819   -1.012789   -1.283362
     24          1           0        1.523316    0.684311    1.484135
     25          1           0        2.239696    2.988765    0.808577
     26          7           0        2.471938   -1.617258    0.529707
     27          8           0        1.595455   -1.705720    1.386787
     28          8           0        3.022754   -2.568504   -0.020175
 ---------------------------------------------------------------------

 SCF Done:  E(RHF) =  -868.335601090     A.U. after   16 cycles
 E2 =    -0.2601796521D+01 EUMP2 =    -0.87093739761163D+03

 The electronic state is 1-A.
 Alpha  occ. eigenvalues --  -20.60680 -20.60646 -20.60241 -20.60170 -15.85701
 Alpha  occ. eigenvalues --  -15.85267 -11.31394 -11.30957 -11.28099 -11.27917
 Alpha  occ. eigenvalues --  -11.27750 -11.27585 -11.27559 -11.27435 -11.27147
 Alpha  occ. eigenvalues --  -11.27005 -11.26751 -11.26658  -1.59698  -1.59293
 Alpha  occ. eigenvalues --   -1.39255  -1.38828  -1.19580  -1.19183  -1.08903
 Alpha  occ. eigenvalues --   -1.08526  -1.05049  -1.04645  -0.95695  -0.95294
 Alpha  occ. eigenvalues --   -0.86429  -0.86023  -0.82538  -0.82125  -0.77570
 Alpha  occ. eigenvalues --   -0.77086  -0.71925  -0.71473  -0.70989  -0.70704
 Alpha  occ. eigenvalues --   -0.70636  -0.70279  -0.65236  -0.65077  -0.64829
 Alpha  occ. eigenvalues --   -0.64661  -0.62481  -0.61912  -0.55512  -0.55145
 Alpha  occ. eigenvalues --   -0.53330  -0.53169  -0.52945  -0.52734  -0.48688
 Alpha  occ. eigenvalues --   -0.48665  -0.48279  -0.48205  -0.44556  -0.44165
 Alpha  occ. eigenvalues --   -0.37544  -0.37191  -0.36678  -0.36236
 Alpha virt. eigenvalues --    0.04976   0.05442   0.10896   0.11423   0.16425
 Alpha virt. eigenvalues --    0.16854   0.19232   0.22179   0.25088   0.26943
 Alpha virt. eigenvalues --    0.28119   0.29121   0.30634   0.31627   0.32004

 Mulliken charges:
               1
     1  C   -0.171044
     2  C   -0.219071
     3  C   -0.170078
     4  C    0.157918
     5  C   -0.178544
     6  C   -0.218551
     7  H    0.222980
     8  H    0.222610
     9  H    0.275999
    10  H    0.286880
    11  H    0.212553
    12  N    0.485751
    13  O   -0.447742
    14  O   -0.463951
    15  C   -0.171231
    16  C   -0.217480
    17  C   -0.169875
    18  C    0.162585
    19  C   -0.175111
    20  C   -0.217352
    21  H    0.225501
    22  H    0.224918
    23  H    0.278308
    24  H    0.268109
    25  H    0.217932
    26  N    0.490141
    27  O   -0.456628
    28  O   -0.455524
 Sum of Mulliken charges =  -0.00000

 Dipole moment (field-independent basis, Debye):
    X=              1.0242    Y=              9.4980    Z=             -0.6916  Tot=              9.5780
 Quadrupole moment (field-independent basis, Debye-Ang):
   XX=            -86.0965   YY=           -109.8098   ZZ=           -103.6678
   XY=             -2.6721   XZ=             -6.8603   YZ=              1.6001

 Normal termination of Gaussian 16 at Thu May  6 09:41:41 2021.
