 Gaussian 16, Revision A.03,
 Gaussian 16:  EM64L-G16RevA.03 25-Dec-2016

 -------------
 #p 6-31g* mp2
 -------------

 ------------------------------------------------------
 Input file generated by CHIRIPA (05-May-2021 14:51:07)
 ------------------------------------------------------
 Symbolic Z-matrix:
 Charge =  0 Multiplicity = 1

                         Standard orientation:
 ---------------------------------------------------------------------
 Center     Atomic      Atomic             Coordinates (Angstroms)
 Number     Number       Type             X           Y           Z
 ---------------------------------------------------------------------
      1          6           0        2.226697   -0.877101   -0.221924
      2          6           0        1.763636   -2.325318   -0.059973
      3          6           0        0.286737   -2.516002   -0.406673
      4          1           0        1.611879   -0.228610    0.417141
      5          1           0        2.047743   -0.555874   -1.257387
      6          1           0        1.944686   -2.644164    0.974519
      7          1           0        2.379754   -2.970460   -0.699353
      8          1           0        0.093830   -2.224493   -1.444175
      9          1           0       -0.343710   -1.896344    0.239207
     10          1           0       -0.023089   -3.558506   -0.283982
     11          6           0        3.700963   -0.670518    0.120993
     12          6           0        4.164024    0.777698   -0.040958
     13          6           0        5.640924    0.968383    0.305742
     14          1           0        3.879918   -0.991745    1.156456
     15          1           0        4.315781   -1.319009   -0.518072
     16          1           0        3.547907    1.422841    0.598422
     17          1           0        3.982974    1.096545   -1.075450
     18          1           0        6.271370    0.348724   -0.340138
     19          1           0        5.833831    0.676874    1.343244
     20          1           0        5.950750    2.010887    0.183051
     21          6           0       -3.054987    0.049120    0.273955
     22          6           0       -4.418208   -0.533821   -0.099939
     23          6           0       -4.585492   -1.984288    0.353884
     24          1           0       -2.264044   -0.569550   -0.171691
     25          1           0       -2.923807   -0.012707    1.363157
     26          1           0       -4.547357   -0.469647   -1.187974
     27          1           0       -5.206003    0.086420    0.346489
     28          1           0       -4.483035   -2.062021    1.441110
     29          1           0       -3.820647   -2.621247   -0.102071
     30          1           0       -5.567014   -2.381110    0.076382
     31          6           0       -2.872672    1.498499   -0.173023
     32          6           0       -1.509453    2.081440    0.200871
     33          6           0       -1.342168    3.531906   -0.252952
     34          1           0       -3.003853    1.560327   -1.262226
     35          1           0       -3.663617    2.117169    0.272622
     36          1           0       -0.721657    1.461200   -0.245557
     37          1           0       -1.380304    2.017267    1.288905
     38          1           0       -2.107014    4.168867    0.203002
     39          1           0       -1.444625    3.609640   -1.340179
     40          1           0       -0.360647    3.928729    0.024549
 ---------------------------------------------------------------------

 SCF Done:  E(RHF) =  -470.733270461     A.U. after   11 cycles
 E2 =    -0.1583320234D+01 EUMP2 =    -0.47231659069526D+03

 The electronic state is 1-A.
 Alpha  occ. eigenvalues --  -11.21626 -11.21612 -11.21572 -11.21554 -11.21425
 Alpha  occ. eigenvalues --  -11.21365 -11.21354 -11.21280 -11.21084 -11.21079
 Alpha  occ. eigenvalues --  -11.21051 -11.21018  -1.08455  -1.08386  -1.03550
 Alpha  occ. eigenvalues --   -1.03490  -0.96011  -0.95932  -0.87036  -0.86943
 Alpha  occ. eigenvalues --   -0.79633  -0.79549  -0.78338  -0.78132  -0.65113
 Alpha  occ. eigenvalues --   -0.64993  -0.60953  -0.60884  -0.59372  -0.59307
 Alpha  occ. eigenvalues --   -0.57687  -0.57492  -0.55340  -0.55182  -0.52695
 Alpha  occ. eigenvalues --   -0.52642  -0.52532  -0.52274  -0.50005  -0.49827
 Alpha  occ. eigenvalues --   -0.48004  -0.47855  -0.46712  -0.46587  -0.46054
 Alpha  occ. eigenvalues --   -0.45757  -0.45689  -0.45239  -0.43805  -0.43741
 Alpha virt. eigenvalues --    0.21464   0.23003   0.23970   0.23997   0.25596
 Alpha virt. eigenvalues --    0.26607   0.27064   0.27435   0.27988   0.29770
 Alpha virt. eigenvalues --    0.30808   0.31311   0.31632   0.31770   0.31935

 Mulliken charges:
               1
     1  C   -0.301462
     2  C   -0.299302
     3  C   -0.482302
     4  H    0.153140
     5  H    0.149009
     6  H    0.152160
     7  H    0.151948
     8  H    0.154043
     9  H    0.162318
    10  H    0.160544
    11  C   -0.298208
    12  C   -0.299722
    13  C   -0.475722
    14  H    0.149640
    15  H    0.149728
    16  H    0.152101
    17  H    0.151880
    18  H    0.155185
    19  H    0.155218
    20  H    0.160308
    21  C   -0.306927
    22  C   -0.298875
    23  C   -0.476404
    24  H    0.159603
    25  H    0.148086
    26  H    0.151709
    27  H    0.151604
    28  H    0.154758
    29  H    0.156429
    30  H    0.159994
    31  C   -0.297397
    32  C   -0.303606
    33  C   -0.475422
    34  H    0.149317
    35  H    0.149411
    36  H    0.155876
    37  H    0.150938
    38  H    0.155072
    39  H    0.155177
    40  H    0.160152
 Sum of Mulliken charges =  -0.00000

 Dipole moment (field-independent basis, Debye):
    X=              0.0245    Y=             -0.0189    Z=             -0.0019  Tot=              0.0310
 Quadrupole moment (field-independent basis, Debye-Ang):
   XX=            -85.8710   YY=            -85.8756   ZZ=            -83.1499
   XY=             -0.7336   XZ=             -0.6892   YZ=              0.6608

 Normal termination of Gaussian 16 at Thu May  6 06:51:24 2021.
