 Gaussian 16, Revision A.03,
 Gaussian 16:  EM64L-G16RevA.03 25-Dec-2016

 -------------
 #p 6-31g* mp2
 -------------

 ------------------------------------------------------
 Input file generated by CHIRIPA (05-May-2021 14:57:22)
 ------------------------------------------------------
 Symbolic Z-matrix:
 Charge =  0 Multiplicity = 1

                         Standard orientation:
 ---------------------------------------------------------------------
 Center     Atomic      Atomic             Coordinates (Angstroms)
 Number     Number       Type             X           Y           Z
 ---------------------------------------------------------------------
      1          6           0        1.690031    1.635021   -0.512258
      2          6           0        1.464459    0.285422   -0.802468
      3          6           0        2.468731   -0.663852   -0.590652
      4          6           0        3.692100   -0.226602   -0.085210
      5          6           0        3.947356    1.110846    0.213731
      6          6           0        2.928576    2.042707   -0.005978
      7          1           0        0.904254    2.365676   -0.679867
      8          1           0        0.503572   -0.034065   -1.195746
      9          1           0        2.321024   -1.715010   -0.806678
     10          1           0        4.915570    1.399055    0.604774
     11          1           0        3.106580    3.090158    0.220309
     12          7           0        4.762957   -1.222339    0.143208
     13          8           0        5.832005   -0.811564    0.589344
     14          8           0        4.512969   -2.394717   -0.128220
     15          6           0       -5.002755   -1.961866   -0.114407
     16          6           0       -4.687129   -1.189686   -1.237189
     17          6           0       -3.864085   -0.065932   -1.117504
     18          6           0       -3.371838    0.258201    0.145794
     19          6           0       -3.668230   -0.491193    1.283269
     20          6           0       -4.493196   -1.610774    1.140028
     21          1           0       -5.642862   -2.833203   -0.216531
     22          1           0       -5.081432   -1.459975   -2.212646
     23          1           0       -3.603792    0.549465   -1.970118
     24          1           0       -3.260125   -0.196740    2.242522
     25          1           0       -4.736643   -2.208613    2.013735
     26          7           0       -2.499501    1.445659    0.284968
     27          8           0       -2.078532    1.710102    1.409020
     28          8           0       -2.253248    2.089463   -0.732634
 ---------------------------------------------------------------------

 SCF Done:  E(RHF) =  -868.340498029     A.U. after   16 cycles
 E2 =    -0.2598794258D+01 EUMP2 =    -0.87093929228711D+03

 The electronic state is 1-A.
 Alpha  occ. eigenvalues --  -20.61977 -20.61933 -20.60201 -20.60193 -15.86960
 Alpha  occ. eigenvalues --  -15.85250 -11.32034 -11.30399 -11.28577 -11.28530
 Alpha  occ. eigenvalues --  -11.28221 -11.27499 -11.27468 -11.27009 -11.26972
 Alpha  occ. eigenvalues --  -11.26436 -11.25883 -11.25832  -1.61020  -1.59282
 Alpha  occ. eigenvalues --   -1.40575  -1.38842  -1.20172  -1.18546  -1.09619
 Alpha  occ. eigenvalues --   -1.07927  -1.05520  -1.03943  -0.96501  -0.94802
 Alpha  occ. eigenvalues --   -0.86930  -0.85322  -0.83336  -0.81669  -0.78424
 Alpha  occ. eigenvalues --   -0.76793  -0.73178  -0.72340  -0.71470  -0.71257
 Alpha  occ. eigenvalues --   -0.70605  -0.69506  -0.65817  -0.65506  -0.64178
 Alpha  occ. eigenvalues --   -0.63932  -0.62865  -0.61317  -0.56018  -0.54255
 Alpha  occ. eigenvalues --   -0.53868  -0.53597  -0.52257  -0.52025  -0.49959
 Alpha  occ. eigenvalues --   -0.49916  -0.48239  -0.48207  -0.46033  -0.44297
 Alpha  occ. eigenvalues --   -0.38131  -0.37112  -0.36423  -0.35575
 Alpha virt. eigenvalues --    0.04051   0.05775   0.10537   0.12098   0.15602
 Alpha virt. eigenvalues --    0.17345   0.20749   0.22361   0.26688   0.27523
 Alpha virt. eigenvalues --    0.27954   0.29405   0.30482   0.31807   0.32132

 Mulliken charges:
               1
     1  C   -0.170868
     2  C   -0.221653
     3  C   -0.172068
     4  C    0.156761
     5  C   -0.171325
     6  C   -0.219913
     7  H    0.247211
     8  H    0.218686
     9  H    0.270805
    10  H    0.272964
    11  H    0.223440
    12  N    0.488392
    13  O   -0.462381
    14  O   -0.464087
    15  C   -0.169529
    16  C   -0.218417
    17  C   -0.173312
    18  C    0.155710
    19  C   -0.170087
    20  C   -0.218380
    21  H    0.229079
    22  H    0.226038
    23  H    0.274951
    24  H    0.277824
    25  H    0.227050
    26  N    0.487587
    27  O   -0.455192
    28  O   -0.469285
 Sum of Mulliken charges =  -0.00000

 Dipole moment (field-independent basis, Debye):
    X=             -7.3364    Y=             -0.5904    Z=             -1.1891  Tot=              7.4555
 Quadrupole moment (field-independent basis, Debye-Ang):
   XX=           -111.2626   YY=           -106.4472   ZZ=           -100.0984
   XY=             30.8663   XZ=             -0.0355   YZ=             -0.4769

 Normal termination of Gaussian 16 at Wed May  5 19:20:52 2021.
