 Gaussian 16, Revision A.03,
 Gaussian 16:  EM64L-G16RevA.03 25-Dec-2016

 -------------
 #p 6-31g* mp2
 -------------

 ------------------------------------------------------
 Input file generated by CHIRIPA (05-May-2021 14:57:25)
 ------------------------------------------------------
 Symbolic Z-matrix:
 Charge =  0 Multiplicity = 1

                         Standard orientation:
 ---------------------------------------------------------------------
 Center     Atomic      Atomic             Coordinates (Angstroms)
 Number     Number       Type             X           Y           Z
 ---------------------------------------------------------------------
      1          6           0        1.733016    2.083094   -0.953109
      2          6           0        2.720439    2.457706   -0.035949
      3          6           0        3.598515    1.505620    0.490418
      4          6           0        3.460156    0.181891    0.075824
      5          6           0        2.486628   -0.222500   -0.836317
      6          6           0        1.619462    0.746543   -1.349666
      7          1           0        1.055143    2.829283   -1.356948
      8          1           0        2.810959    3.494958    0.273825
      9          1           0        4.372003    1.768143    1.201907
     10          1           0        2.420974   -1.264192   -1.126117
     11          1           0        0.853566    0.452732   -2.061792
     12          7           0        4.383961   -0.835015    0.626175
     13          8           0        4.241314   -1.994714    0.244878
     14          8           0        5.233193   -0.453112    1.428417
     15          6           0       -4.856228    1.288623    1.148545
     16          6           0       -4.479927    0.112032    1.804710
     17          6           0       -3.622551   -0.802777    1.186181
     18          6           0       -3.158215   -0.507856   -0.094719
     19          6           0       -3.514965    0.655763   -0.774430
     20          6           0       -4.373397    1.556262   -0.136665
     21          1           0       -5.522669    1.993710    1.636505
     22          1           0       -4.853354   -0.098435    2.802859
     23          1           0       -3.315200   -1.721285    1.671256
     24          1           0       -3.126419    0.838020   -1.769032
     25          1           0       -4.663957    2.469218   -0.648652
     26          7           0       -2.249990   -1.468749   -0.759709
     27          8           0       -1.854668   -1.185666   -1.888524
     28          8           0       -1.950642   -2.486784   -0.139523
 ---------------------------------------------------------------------

 SCF Done:  E(RHF) =  -868.339105230     A.U. after   16 cycles
 E2 =    -0.2598924681D+01 EUMP2 =    -0.87093802991025D+03

 The electronic state is 1-A.
 Alpha  occ. eigenvalues --  -20.61556 -20.61476 -20.60223 -20.60198 -15.86548
 Alpha  occ. eigenvalues --  -15.85261 -11.31782 -11.30588 -11.28379 -11.28291
 Alpha  occ. eigenvalues --  -11.28040 -11.27343 -11.27280 -11.27205 -11.27034
 Alpha  occ. eigenvalues --  -11.26934 -11.26258 -11.26005  -1.60577  -1.59290
 Alpha  occ. eigenvalues --   -1.40137  -1.38842  -1.19939  -1.18757  -1.09355
 Alpha  occ. eigenvalues --   -1.08178  -1.05325  -1.04128  -0.96214  -0.95015
 Alpha  occ. eigenvalues --   -0.86728  -0.85540  -0.83053  -0.81824  -0.78121
 Alpha  occ. eigenvalues --   -0.76863  -0.72771  -0.71884  -0.71481  -0.71045
 Alpha  occ. eigenvalues --   -0.70612  -0.69898  -0.65596  -0.65324  -0.64404
 Alpha  occ. eigenvalues --   -0.64107  -0.62677  -0.61446  -0.55822  -0.54695
 Alpha  occ. eigenvalues --   -0.53657  -0.53415  -0.52502  -0.52195  -0.49544
 Alpha  occ. eigenvalues --   -0.49508  -0.48244  -0.48231  -0.45561  -0.44255
 Alpha  occ. eigenvalues --   -0.37904  -0.36924  -0.36784  -0.35733
 Alpha virt. eigenvalues --    0.04380   0.05631   0.10730   0.11903   0.15877
 Alpha virt. eigenvalues --    0.17122   0.20829   0.22089   0.26734   0.27453
 Alpha virt. eigenvalues --    0.28373   0.28849   0.30441   0.31516   0.32133

 Mulliken charges:
               1
     1  C   -0.172737
     2  C   -0.218851
     3  C   -0.172675
     4  C    0.157946
     5  C   -0.171435
     6  C   -0.225953
     7  H    0.220296
     8  H    0.219480
     9  H    0.273146
    10  H    0.282700
    11  H    0.239274
    12  N    0.487870
    13  O   -0.457896
    14  O   -0.463648
    15  C   -0.170262
    16  C   -0.218286
    17  C   -0.169862
    18  C    0.159181
    19  C   -0.172393
    20  C   -0.218659
    21  H    0.227362
    22  H    0.226084
    23  H    0.278304
    24  H    0.271496
    25  H    0.223411
    26  N    0.489065
    27  O   -0.469602
    28  O   -0.453355
 Sum of Mulliken charges =  -0.00000

 Dipole moment (field-independent basis, Debye):
    X=             -6.7376    Y=              6.7384    Z=              0.4634  Tot=              9.5402
 Quadrupole moment (field-independent basis, Debye-Ang):
   XX=           -107.4555   YY=           -103.5362   ZZ=           -101.6427
   XY=              4.2314   XZ=            -13.7177   YZ=             -2.1481

 Normal termination of Gaussian 16 at Fri May  7 06:32:43 2021.
