 Gaussian 16, Revision A.03,
 Gaussian 16:  EM64L-G16RevA.03 25-Dec-2016

 -------------
 #p 6-31g* mp2
 -------------

 ------------------------------------------------------
 Input file generated by CHIRIPA (05-May-2021 14:51:13)
 ------------------------------------------------------
 Symbolic Z-matrix:
 Charge =  0 Multiplicity = 1

                         Standard orientation:
 ---------------------------------------------------------------------
 Center     Atomic      Atomic             Coordinates (Angstroms)
 Number     Number       Type             X           Y           Z
 ---------------------------------------------------------------------
      1          6           0       -2.178613   -1.487947   -0.082867
      2          6           0       -0.988765   -1.598029    0.871139
      3          6           0       -0.094678   -2.799931    0.564814
      4          1           0       -2.771394   -2.411258   -0.027606
      5          1           0       -1.807111   -1.416289   -1.114491
      6          1           0       -1.362363   -1.668067    1.900768
      7          1           0       -0.398855   -0.674272    0.813743
      8          1           0        0.305777   -2.732976   -0.451923
      9          1           0       -0.663206   -3.732417    0.641279
     10          1           0        0.749594   -2.859458    1.258732
     11          6           0       -3.081743   -0.291309    0.210631
     12          6           0       -4.271591   -0.181227   -0.743376
     13          6           0       -5.165677    1.020675   -0.437051
     14          1           0       -3.453245   -0.362968    1.242254
     15          1           0       -2.488962    0.632002    0.155370
     16          1           0       -4.861501   -1.104984   -0.685979
     17          1           0       -3.897993   -0.111190   -1.773005
     18          1           0       -4.597150    1.953161   -0.513516
     19          1           0       -5.566132    0.953720    0.579686
     20          1           0       -6.009950    1.080202   -1.130968
     21          6           0        3.267028    0.529750    0.155984
     22          6           0        3.769694   -0.491472   -0.865005
     23          6           0        5.044463   -1.203165   -0.410858
     24          1           0        4.056002    1.271156    0.342480
     25          1           0        3.083309    0.021444    1.112681
     26          1           0        3.951093    0.018352   -1.819882
     27          1           0        2.979362   -1.230424   -1.049236
     28          1           0        4.873439   -1.737056    0.529521
     29          1           0        5.850690   -0.481185   -0.245504
     30          1           0        5.386241   -1.928711   -1.155594
     31          6           0        1.993327    1.249507   -0.283747
     32          6           0        1.490662    2.270729    0.737242
     33          6           0        0.215892    2.982422    0.283094
     34          1           0        2.177046    1.757813   -1.240444
     35          1           0        1.204353    0.508101   -0.470243
     36          1           0        2.280994    3.009681    0.921472
     37          1           0        1.309264    1.760904    1.692118
     38          1           0       -0.590334    2.260440    0.117741
     39          1           0        0.386918    3.516312   -0.657284
     40          1           0       -0.125885    3.707968    1.027830
 ---------------------------------------------------------------------

 SCF Done:  E(RHF) =  -470.732970733     A.U. after   11 cycles
 E2 =    -0.1584583366D+01 EUMP2 =    -0.47231755409905D+03

 The electronic state is 1-A.
 Alpha  occ. eigenvalues --  -11.21660 -11.21636 -11.21622 -11.21596 -11.21455
 Alpha  occ. eigenvalues --  -11.21418 -11.21394 -11.21358 -11.21165 -11.21117
 Alpha  occ. eigenvalues --  -11.21072 -11.21063  -1.08510  -1.08427  -1.03584
 Alpha  occ. eigenvalues --   -1.03546  -0.96044  -0.95986  -0.87067  -0.86995
 Alpha  occ. eigenvalues --   -0.79653  -0.79608  -0.78351  -0.78217  -0.65419
 Alpha  occ. eigenvalues --   -0.64834  -0.61029  -0.60896  -0.59398  -0.59362
 Alpha  occ. eigenvalues --   -0.57679  -0.57579  -0.55463  -0.55151  -0.52722
 Alpha  occ. eigenvalues --   -0.52691  -0.52492  -0.52395  -0.50158  -0.49772
 Alpha  occ. eigenvalues --   -0.47984  -0.47939  -0.46820  -0.46604  -0.46072
 Alpha  occ. eigenvalues --   -0.45782  -0.45757  -0.45296  -0.43831  -0.43801
 Alpha virt. eigenvalues --    0.19082   0.22019   0.23556   0.24615   0.25669
 Alpha virt. eigenvalues --    0.26524   0.26812   0.27734   0.28588   0.29516
 Alpha virt. eigenvalues --    0.31225   0.31348   0.31837   0.32005   0.32198

 Mulliken charges:
               1
     1  C   -0.298133
     2  C   -0.307566
     3  C   -0.477022
     4  H    0.150215
     5  H    0.149533
     6  H    0.152548
     7  H    0.158571
     8  H    0.155894
     9  H    0.156016
    10  H    0.160196
    11  C   -0.306385
    12  C   -0.299233
    13  C   -0.475934
    14  H    0.149902
    15  H    0.156642
    16  H    0.152038
    17  H    0.152091
    18  H    0.155731
    19  H    0.155180
    20  H    0.160332
    21  C   -0.298056
    22  C   -0.301415
    23  C   -0.475587
    24  H    0.149789
    25  H    0.149761
    26  H    0.151669
    27  H    0.153842
    28  H    0.155257
    29  H    0.155065
    30  H    0.160303
    31  C   -0.303726
    32  C   -0.300128
    33  C   -0.482994
    34  H    0.149843
    35  H    0.153789
    36  H    0.152518
    37  H    0.152733
    38  H    0.160353
    39  H    0.155429
    40  H    0.160937
 Sum of Mulliken charges =  -0.00000

 Dipole moment (field-independent basis, Debye):
    X=             -0.0135    Y=             -0.0052    Z=              0.0052  Tot=              0.0153
 Quadrupole moment (field-independent basis, Debye-Ang):
   XX=            -85.4978   YY=            -84.9188   ZZ=            -84.2301
   XY=              1.9109   XZ=             -0.7012   YZ=             -0.6582

 Normal termination of Gaussian 16 at Thu May  6 07:08:14 2021.
