 Gaussian 16, Revision A.03,
 Gaussian 16:  EM64L-G16RevA.03 25-Dec-2016

 -------------
 #p 6-31g* mp2
 -------------

 ------------------------------------------------------
 Input file generated by CHIRIPA (05-May-2021 14:57:26)
 ------------------------------------------------------
 Symbolic Z-matrix:
 Charge =  0 Multiplicity = 1

                         Standard orientation:
 ---------------------------------------------------------------------
 Center     Atomic      Atomic             Coordinates (Angstroms)
 Number     Number       Type             X           Y           Z
 ---------------------------------------------------------------------
      1          6           0        5.672355   -1.153375    0.615325
      2          6           0        5.087308   -1.439206   -0.622633
      3          6           0        3.886662   -0.829367   -0.998259
      4          6           0        3.295652    0.065306   -0.107440
      5          6           0        3.853911    0.370678    1.132876
      6          6           0        5.054878   -0.250936    1.487591
      7          1           0        6.605170   -1.631686    0.898999
      8          1           0        5.564611   -2.139641   -1.302058
      9          1           0        3.411999   -1.032480   -1.950549
     10          1           0        3.354530    1.073242    1.788956
     11          1           0        5.506955   -0.027050    2.449645
     12          7           0        2.024412    0.717147   -0.494030
     13          8           0        1.523641    1.501694    0.308685
     14          8           0        1.552857    0.431171   -1.592433
     15          6           0       -1.923837    1.964651   -0.367632
     16          6           0       -2.274071    1.109407   -1.417591
     17          6           0       -3.149386    0.040974   -1.201200
     18          6           0       -3.658045   -0.143737    0.083494
     19          6           0       -3.328117    0.691076    1.150043
     20          6           0       -2.451049    1.753129    0.910581
     21          1           0       -1.243190    2.792157   -0.544692
     22          1           0       -1.866168    1.271270   -2.411302
     23          1           0       -3.437306   -0.636381   -1.996000
     24          1           0       -3.750926    0.504352    2.129728
     25          1           0       -2.180812    2.415724    1.727883
     26          7           0       -4.585630   -1.271462    0.324791
     27          8           0       -5.020088   -1.412772    1.465805
     28          8           0       -4.860647   -1.992708   -0.631665
 ---------------------------------------------------------------------

 SCF Done:  E(RHF) =  -868.340380662     A.U. after   16 cycles
 E2 =    -0.2599158469D+01 EUMP2 =    -0.87093953913095D+03

 The electronic state is 1-A.
 Alpha  occ. eigenvalues --  -20.61679 -20.61672 -20.59760 -20.59754 -15.86689
 Alpha  occ. eigenvalues --  -15.84804 -11.31776 -11.29816 -11.28318 -11.28302
 Alpha  occ. eigenvalues --  -11.27996 -11.27263 -11.27249 -11.26410 -11.26355
 Alpha  occ. eigenvalues --  -11.25866 -11.25264 -11.25158  -1.60727  -1.58845
 Alpha  occ. eigenvalues --   -1.40291  -1.38409  -1.19920  -1.17949  -1.09368
 Alpha  occ. eigenvalues --   -1.07354  -1.05282  -1.03316  -0.96254  -0.94259
 Alpha  occ. eigenvalues --   -0.86693  -0.84701  -0.83099  -0.81130  -0.78173
 Alpha  occ. eigenvalues --   -0.76259  -0.72943  -0.72014  -0.71033  -0.71025
 Alpha  occ. eigenvalues --   -0.70168  -0.68964  -0.65578  -0.65283  -0.63581
 Alpha  occ. eigenvalues --   -0.63296  -0.62634  -0.60697  -0.55795  -0.53696
 Alpha  occ. eigenvalues --   -0.53623  -0.53369  -0.51679  -0.51398  -0.49686
 Alpha  occ. eigenvalues --   -0.49626  -0.47805  -0.47750  -0.45752  -0.43896
 Alpha  occ. eigenvalues --   -0.37881  -0.36870  -0.35754  -0.34930
 Alpha virt. eigenvalues --    0.04345   0.06297   0.10789   0.12760   0.15902
 Alpha virt. eigenvalues --    0.17923   0.20955   0.22953   0.26878   0.27828
 Alpha virt. eigenvalues --    0.28706   0.29878   0.30556   0.31996   0.32572

 Mulliken charges:
               1
     1  C   -0.169679
     2  C   -0.218393
     3  C   -0.170076
     4  C    0.158415
     5  C   -0.170243
     6  C   -0.218387
     7  H    0.227854
     8  H    0.225562
     9  H    0.275930
    10  H    0.274560
    11  H    0.225081
    12  N    0.490553
    13  O   -0.466111
    14  O   -0.462327
    15  C   -0.153190
    16  C   -0.213876
    17  C   -0.174110
    18  C    0.155609
    19  C   -0.174097
    20  C   -0.220137
    21  H    0.233214
    22  H    0.225809
    23  H    0.270595
    24  H    0.269630
    25  H    0.219264
    26  N    0.488364
    27  O   -0.465294
    28  O   -0.464522
 Sum of Mulliken charges =  -0.00000

 Dipole moment (field-independent basis, Debye):
    X=              8.3699    Y=              1.8177    Z=              0.3950  Tot=              8.5741
 Quadrupole moment (field-independent basis, Debye-Ang):
   XX=           -101.5671   YY=           -105.8250   ZZ=            -97.1416
   XY=            -23.4614   XZ=              7.4583   YZ=              4.6158

 Normal termination of Gaussian 16 at Thu May  6 06:49:12 2021.
