 Gaussian 16, Revision A.03,
 Gaussian 16:  EM64L-G16RevA.03 25-Dec-2016

 -------------
 #p 6-31g* mp2
 -------------

 ------------------------------------------------------
 Input file generated by CHIRIPA (05-May-2021 14:51:09)
 ------------------------------------------------------
 Symbolic Z-matrix:
 Charge =  0 Multiplicity = 1

                         Standard orientation:
 ---------------------------------------------------------------------
 Center     Atomic      Atomic             Coordinates (Angstroms)
 Number     Number       Type             X           Y           Z
 ---------------------------------------------------------------------
      1          6           0       -4.140763   -0.450911    0.192439
      2          6           0       -4.814298    0.435863   -0.855400
      3          6           0       -6.340116    0.347635   -0.811925
      4          1           0       -4.453786   -1.492582    0.037898
      5          1           0       -4.497360   -0.162227    1.190885
      6          1           0       -4.455489    0.146512   -1.851466
      7          1           0       -4.499484    1.475517   -0.698466
      8          1           0       -6.716050    0.656260    0.168903
      9          1           0       -6.671805   -0.680295   -0.990649
     10          1           0       -6.801100    0.989386   -1.569229
     11          6           0       -2.615384   -0.373535    0.161456
     12          6           0       -1.941848   -1.260309    1.209295
     13          6           0       -0.416031   -1.172081    1.165820
     14          1           0       -2.258786   -0.662218   -0.836990
     15          1           0       -2.302360    0.668136    0.315997
     16          1           0       -2.256662   -2.299963    1.052361
     17          1           0       -2.300657   -0.970958    2.205362
     18          1           0       -0.084341   -0.144150    1.344544
     19          1           0       -0.040096   -1.480706    0.184992
     20          1           0        0.044954   -1.813832    1.923124
     21          6           0        3.726298   -0.099682   -0.624300
     22          6           0        3.843808   -1.483520    0.015364
     23          6           0        4.542693   -2.496668   -0.891766
     24          1           0        3.176706   -0.186103   -1.571626
     25          1           0        4.731000    0.265814   -0.878037
     26          1           0        2.839285   -1.845705    0.269081
     27          1           0        4.393017   -1.393765    0.961371
     28          1           0        5.556016   -2.161163   -1.135104
     29          1           0        3.993455   -2.615671   -1.831329
     30          1           0        4.615934   -3.479032   -0.414841
     31          6           0        3.029848    0.924128    0.270405
     32          6           0        2.912338    2.307966   -0.369259
     33          6           0        2.213453    3.321113    0.537870
     34          1           0        2.025146    0.558631    0.524142
     35          1           0        3.579440    1.010549    1.217731
     36          1           0        2.363129    2.218211   -1.315266
     37          1           0        3.916861    2.670151   -0.622976
     38          1           0        2.762691    3.440117    1.477434
     39          1           0        1.200130    2.985609    0.781209
     40          1           0        2.140212    4.303477    0.060945
 ---------------------------------------------------------------------

 SCF Done:  E(RHF) =  -470.733014570     A.U. after   11 cycles
 E2 =    -0.1583256104D+01 EUMP2 =    -0.47231627067396D+03

 The electronic state is 1-A.
 Alpha  occ. eigenvalues --  -11.21677 -11.21639 -11.21532 -11.21499 -11.21467
 Alpha  occ. eigenvalues --  -11.21403 -11.21296 -11.21204 -11.21180 -11.21099
 Alpha  occ. eigenvalues --  -11.21054 -11.21012  -1.08493  -1.08338  -1.03597
 Alpha  occ. eigenvalues --   -1.03461  -0.96058  -0.95906  -0.87078  -0.86927
 Alpha  occ. eigenvalues --   -0.79680  -0.79519  -0.78328  -0.78115  -0.65124
 Alpha  occ. eigenvalues --   -0.64979  -0.61039  -0.60824  -0.59418  -0.59274
 Alpha  occ. eigenvalues --   -0.57694  -0.57500  -0.55374  -0.55180  -0.52761
 Alpha  occ. eigenvalues --   -0.52619  -0.52520  -0.52300  -0.50071  -0.49795
 Alpha  occ. eigenvalues --   -0.48056  -0.47825  -0.46768  -0.46469  -0.45992
 Alpha  occ. eigenvalues --   -0.45764  -0.45675  -0.45337  -0.43838  -0.43700
 Alpha virt. eigenvalues --    0.21260   0.22902   0.23601   0.24490   0.25436
 Alpha virt. eigenvalues --    0.26489   0.27159   0.27457   0.27982   0.29646
 Alpha virt. eigenvalues --    0.29772   0.31584   0.31746   0.31959   0.32245

 Mulliken charges:
               1
     1  C   -0.298320
     2  C   -0.299715
     3  C   -0.475751
     4  H    0.149816
     5  H    0.149752
     6  H    0.151929
     7  H    0.152079
     8  H    0.155287
     9  H    0.155230
    10  H    0.160402
    11  C   -0.298402
    12  C   -0.300423
    13  C   -0.479723
    14  H    0.149442
    15  H    0.149347
    16  H    0.152296
    17  H    0.152434
    18  H    0.158170
    19  H    0.155558
    20  H    0.161722
    21  C   -0.297185
    22  C   -0.303735
    23  C   -0.475504
    24  H    0.148729
    25  H    0.148993
    26  H    0.156810
    27  H    0.151496
    28  H    0.154982
    29  H    0.154635
    30  H    0.159887
    31  C   -0.308313
    32  C   -0.299000
    33  C   -0.475716
    34  H    0.161742
    35  H    0.148611
    36  H    0.151625
    37  H    0.151588
    38  H    0.155185
    39  H    0.153851
    40  H    0.160185
 Sum of Mulliken charges =  -0.00000

 Dipole moment (field-independent basis, Debye):
    X=             -0.0632    Y=             -0.0236    Z=              0.0271  Tot=              0.0727
 Quadrupole moment (field-independent basis, Debye-Ang):
   XX=            -85.6121   YY=            -84.9124   ZZ=            -84.4652
   XY=              0.6733   XZ=              0.5532   YZ=              0.1492

 Normal termination of Gaussian 16 at Wed May  5 22:58:08 2021.
