 Gaussian 16, Revision A.03,
 Gaussian 16:  EM64L-G16RevA.03 25-Dec-2016

 -------------
 #p 6-31g* mp2
 -------------

 ------------------------------------------------------
 Input file generated by CHIRIPA (05-May-2021 14:51:11)
 ------------------------------------------------------
 Symbolic Z-matrix:
 Charge =  0 Multiplicity = 1

                         Standard orientation:
 ---------------------------------------------------------------------
 Center     Atomic      Atomic             Coordinates (Angstroms)
 Number     Number       Type             X           Y           Z
 ---------------------------------------------------------------------
      1          6           0        2.918431   -0.232674   -0.230476
      2          6           0        3.330950    0.706332    0.903579
      3          6           0        4.214452    1.858799    0.424999
      4          1           0        3.820566   -0.635450   -0.710963
      5          1           0        2.385806    0.344067   -0.999291
      6          1           0        3.861427    0.127737    1.670676
      7          1           0        2.427727    1.106771    1.381546
      8          1           0        3.690147    2.460677   -0.324299
      9          1           0        5.131993    1.476081   -0.033526
     10          1           0        4.497637    2.517663    1.251778
     11          6           0        2.034920   -1.389842    0.232233
     12          6           0        1.622401   -2.328848   -0.901822
     13          6           0        0.738899   -3.481315   -0.423242
     14          1           0        2.567544   -1.966583    1.001048
     15          1           0        1.132785   -0.987066    0.712720
     16          1           0        2.525624   -2.729287   -1.379789
     17          1           0        1.091924   -1.750253   -1.668919
     18          1           0       -0.178642   -3.098597    0.035283
     19          1           0        1.263204   -4.083193    0.326056
     20          1           0        0.455714   -4.140179   -1.250021
     21          6           0       -1.983617    1.248347   -0.387244
     22          6           0       -2.027956    2.720659    0.023020
     23          6           0       -1.035913    3.582314   -0.758770
     24          1           0       -0.965327    0.863524   -0.239123
     25          1           0       -2.194764    1.168052   -1.462588
     26          1           0       -1.818152    2.798034    1.097548
     27          1           0       -3.046305    3.101970   -0.125914
     28          1           0       -1.246738    3.534846   -1.832037
     29          1           0       -0.011607    3.229182   -0.601621
     30          1           0       -1.084400    4.631075   -0.449562
     31          6           0       -2.969734    0.374169    0.385487
     32          6           0       -2.925395   -1.098143   -0.024777
     33          6           0       -3.917438   -1.959798    0.757013
     34          1           0       -2.758587    0.454464    1.460831
     35          1           0       -3.988025    0.758991    0.237366
     36          1           0       -1.907046   -1.479454    0.124157
     37          1           0       -3.135198   -1.175518   -1.099305
     38          1           0       -4.941744   -1.606667    0.599864
     39          1           0       -3.706613   -1.912330    1.830280
     40          1           0       -3.868951   -3.008559    0.447805
 ---------------------------------------------------------------------

 SCF Done:  E(RHF) =  -470.733365591     A.U. after   11 cycles
 E2 =    -0.1583762862D+01 EUMP2 =    -0.47231712845336D+03

 The electronic state is 1-A.
 Alpha  occ. eigenvalues --  -11.21662 -11.21643 -11.21642 -11.21609 -11.21472
 Alpha  occ. eigenvalues --  -11.21446 -11.21409 -11.21385 -11.21133 -11.21101
 Alpha  occ. eigenvalues --  -11.21097 -11.21055  -1.08504  -1.08451  -1.03597
 Alpha  occ. eigenvalues --   -1.03539  -0.96041  -0.95992  -0.87052  -0.87012
 Alpha  occ. eigenvalues --   -0.79679  -0.79587  -0.78338  -0.78247  -0.65302
 Alpha  occ. eigenvalues --   -0.64929  -0.61149  -0.60808  -0.59407  -0.59357
 Alpha  occ. eigenvalues --   -0.57683  -0.57578  -0.55432  -0.55182  -0.52721
 Alpha  occ. eigenvalues --   -0.52690  -0.52468  -0.52414  -0.50061  -0.49873
 Alpha  occ. eigenvalues --   -0.48065  -0.47849  -0.46822  -0.46528  -0.46084
 Alpha  occ. eigenvalues --   -0.45811  -0.45749  -0.45429  -0.43837  -0.43809
 Alpha virt. eigenvalues --    0.18842   0.21907   0.23771   0.25008   0.25630
 Alpha virt. eigenvalues --    0.26469   0.26958   0.27386   0.28526   0.29751
 Alpha virt. eigenvalues --    0.30970   0.31543   0.31743   0.31896   0.32093

 Mulliken charges:
               1
     1  C   -0.299065
     2  C   -0.299797
     3  C   -0.475897
     4  H    0.150083
     5  H    0.150254
     6  H    0.152146
     7  H    0.151230
     8  H    0.155418
     9  H    0.155410
    10  H    0.160443
    11  C   -0.301029
    12  C   -0.299841
    13  C   -0.481543
    14  H    0.149857
    15  H    0.150486
    16  H    0.152137
    17  H    0.153062
    18  H    0.160776
    19  H    0.155080
    20  H    0.160498
    21  C   -0.301634
    22  C   -0.299606
    23  C   -0.475977
    24  H    0.151494
    25  H    0.149811
    26  H    0.152059
    27  H    0.152393
    28  H    0.155354
    29  H    0.154706
    30  H    0.160747
    31  C   -0.297485
    32  C   -0.308053
    33  C   -0.475758
    34  H    0.149466
    35  H    0.150085
    36  H    0.158739
    37  H    0.152313
    38  H    0.155488
    39  H    0.155200
    40  H    0.160947
 Sum of Mulliken charges =  -0.00000

 Dipole moment (field-independent basis, Debye):
    X=             -0.0134    Y=             -0.0020    Z=             -0.0099  Tot=              0.0167
 Quadrupole moment (field-independent basis, Debye-Ang):
   XX=            -84.2883   YY=            -85.7448   ZZ=            -84.5088
   XY=             -1.6798   XZ=              1.0966   YZ=              0.3092

 Normal termination of Gaussian 16 at Wed May  5 19:50:18 2021.
