 Gaussian 16, Revision A.03,
 Gaussian 16:  EM64L-G16RevA.03 25-Dec-2016

 -------------
 #p 6-31g* mp2
 -------------

 ------------------------------------------------------
 Input file generated by CHIRIPA (05-May-2021 14:57:25)
 ------------------------------------------------------
 Symbolic Z-matrix:
 Charge =  0 Multiplicity = 1

                         Standard orientation:
 ---------------------------------------------------------------------
 Center     Atomic      Atomic             Coordinates (Angstroms)
 Number     Number       Type             X           Y           Z
 ---------------------------------------------------------------------
      1          6           0       -4.604479    2.443087    0.434553
      2          6           0       -5.538565    1.403588    0.375844
      3          6           0       -5.124438    0.089430    0.139125
      4          6           0       -3.762317   -0.150449   -0.035155
      5          6           0       -2.807428    0.863792    0.017695
      6          6           0       -3.244289    2.170352    0.255606
      7          1           0       -4.935013    3.461005    0.618905
      8          1           0       -6.595547    1.612451    0.514446
      9          1           0       -5.826192   -0.734230    0.088696
     10          1           0       -1.760531    0.624543   -0.124376
     11          1           0       -2.516624    2.975657    0.300678
     12          7           0       -3.311865   -1.537667   -0.286390
     13          8           0       -2.106131   -1.722792   -0.436632
     14          8           0       -4.173063   -2.413576   -0.328309
     15          6           0        2.319171   -2.083462    0.199455
     16          6           0        3.582189   -2.096783    0.800394
     17          6           0        4.431293   -0.991333    0.692936
     18          6           0        3.983252    0.115682   -0.026138
     19          6           0        2.730533    0.159287   -0.636126
     20          6           0        1.898117   -0.957454   -0.515627
     21          1           0        1.666048   -2.946588    0.287996
     22          1           0        3.911824   -2.969882    1.356348
     23          1           0        5.414072   -0.974882    1.148231
     24          1           0        2.429745    1.044112   -1.183877
     25          1           0        0.917763   -0.944303   -0.983365
     26          7           0        4.873327    1.291949   -0.146803
     27          8           0        4.455124    2.255008   -0.785756
     28          8           0        5.972319    1.228577    0.399858
 ---------------------------------------------------------------------

 SCF Done:  E(RHF) =  -868.339966957     A.U. after   16 cycles
 E2 =    -0.2598508894D+01 EUMP2 =    -0.87093847585104D+03

 The electronic state is 1-A.
 Alpha  occ. eigenvalues --  -20.61687 -20.61626 -20.60545 -20.60535 -15.86701
 Alpha  occ. eigenvalues --  -15.85590 -11.31818 -11.30803 -11.28392 -11.28327
 Alpha  occ. eigenvalues --  -11.28016 -11.27354 -11.27350 -11.27300 -11.27286
 Alpha  occ. eigenvalues --  -11.26915 -11.26298 -11.26181  -1.60718  -1.59622
 Alpha  occ. eigenvalues --   -1.40285  -1.39181  -1.19958  -1.18936  -1.09391
 Alpha  occ. eigenvalues --   -1.08325  -1.05326  -1.04319  -0.96274  -0.95199
 Alpha  occ. eigenvalues --   -0.86734  -0.85692  -0.83122  -0.82045  -0.78206
 Alpha  occ. eigenvalues --   -0.77138  -0.72941  -0.72021  -0.71809  -0.71062
 Alpha  occ. eigenvalues --   -0.70945  -0.69975  -0.65617  -0.65321  -0.64568
 Alpha  occ. eigenvalues --   -0.64263  -0.62686  -0.61661  -0.55818  -0.54712
 Alpha  occ. eigenvalues --   -0.53662  -0.53415  -0.52656  -0.52374  -0.49696
 Alpha  occ. eigenvalues --   -0.49643  -0.48578  -0.48547  -0.45742  -0.44622
 Alpha  occ. eigenvalues --   -0.37910  -0.36916  -0.36860  -0.35942
 Alpha virt. eigenvalues --    0.04324   0.05382   0.10742   0.11711   0.15879
 Alpha virt. eigenvalues --    0.16907   0.20210   0.22030   0.25548   0.27200
 Alpha virt. eigenvalues --    0.28719   0.28942   0.30260   0.31193   0.32526

 Mulliken charges:
               1
     1  C   -0.169834
     2  C   -0.218311
     3  C   -0.170491
     4  C    0.158419
     5  C   -0.170092
     6  C   -0.218544
     7  H    0.228618
     8  H    0.225683
     9  H    0.276530
    10  H    0.270121
    11  H    0.226985
    12  N    0.492306
    13  O   -0.474618
    14  O   -0.455633
    15  C   -0.171702
    16  C   -0.219211
    17  C   -0.172078
    18  C    0.158337
    19  C   -0.174571
    20  C   -0.227132
    21  H    0.235558
    22  H    0.222863
    23  H    0.273883
    24  H    0.270303
    25  H    0.239249
    26  N    0.488217
    27  O   -0.463590
    28  O   -0.461264
 Sum of Mulliken charges =  -0.00000

 Dipole moment (field-independent basis, Debye):
    X=             -5.1446    Y=              0.6696    Z=              1.3567  Tot=              5.3624
 Quadrupole moment (field-independent basis, Debye-Ang):
   XX=           -110.9611   YY=           -106.1437   ZZ=           -104.9609
   XY=            -36.1601   XZ=              0.2958   YZ=             -1.6158

 Normal termination of Gaussian 16 at Thu May  6 21:19:13 2021.
