 Gaussian 16, Revision A.03,
 Gaussian 16:  EM64L-G16RevA.03 25-Dec-2016

 -------------
 #p 6-31g* mp2
 -------------

 ------------------------------------------------------
 Input file generated by CHIRIPA (05-May-2021 14:53:18)
 ------------------------------------------------------
 Symbolic Z-matrix:
 Charge =  0 Multiplicity = 1

                         Standard orientation:
 ---------------------------------------------------------------------
 Center     Atomic      Atomic             Coordinates (Angstroms)
 Number     Number       Type             X           Y           Z
 ---------------------------------------------------------------------
      1          6           0        3.835147    0.641578   -0.452908
      2          6           0        4.081841    1.749281    0.571846
      3          6           0        4.722330    2.993167   -0.044851
      4          1           0        4.788774    0.368807   -0.925281
      5          1           0        3.189518    1.029119   -1.253140
      6          1           0        4.725683    1.359355    1.370621
      7          1           0        3.127545    2.019312    1.041971
      8          1           0        4.080443    3.408773   -0.828339
      9          1           0        5.687661    2.745066   -0.497821
     10          1           0        4.889818    3.772319    0.705302
     11          6           0        3.195263   -0.608484    0.148443
     12          6           0        2.948569   -1.716187   -0.876311
     13          6           0        2.308080   -2.960073   -0.259614
     14          1           0        3.840891   -0.996025    0.948675
     15          1           0        2.241636   -0.335714    0.620815
     16          1           0        3.902865   -1.986219   -1.346436
     17          1           0        2.304727   -1.326261   -1.675086
     18          1           0        1.342749   -2.711972    0.193356
     19          1           0        2.949967   -3.375680    0.523874
     20          1           0        2.140592   -3.739225   -1.009767
     21          6           0       -4.215582    1.875272   -0.682133
     22          6           0       -3.844108    0.854915   -1.563835
     23          6           0       -3.030334   -0.196228   -1.130916
     24          6           0       -2.604205   -0.195472    0.196376
     25          6           0       -2.957267    0.806606    1.098860
     26          6           0       -3.771758    1.847909    0.644062
     27          1           0       -4.848019    2.688003   -1.026931
     28          1           0       -4.187301    0.873573   -2.594327
     29          1           0       -2.727709   -0.998976   -1.792304
     30          1           0       -2.599499    0.760701    2.120287
     31          1           0       -4.058672    2.638988    1.331026
     32          7           0       -1.742319   -1.303060    0.666268
     33          8           0       -1.380116   -1.279340    1.840526
     34          8           0       -1.445296   -2.173938   -0.148587
 ---------------------------------------------------------------------

 SCF Done:  E(RHF) =  -669.536483931     A.U. after   15 cycles
 E2 =    -0.2091341826D+01 EUMP2 =    -0.67162782575720D+03

 The electronic state is 1-A.
 Alpha  occ. eigenvalues --  -20.61055 -20.61042 -15.86061 -11.31358 -11.27913
 Alpha  occ. eigenvalues --  -11.27910 -11.27645 -11.26912 -11.26902 -11.21155
 Alpha  occ. eigenvalues --  -11.20792 -11.20762 -11.20554 -11.20483 -11.19450
 Alpha  occ. eigenvalues --   -1.60102  -1.39656  -1.19520  -1.08931  -1.07686
 Alpha  occ. eigenvalues --   -1.04910  -1.02702  -0.95777  -0.95125  -0.86312
 Alpha  occ. eigenvalues --   -0.86137  -0.82608  -0.78811  -0.77667  -0.77447
 Alpha  occ. eigenvalues --   -0.72271  -0.71417  -0.70627  -0.65174  -0.64912
 Alpha  occ. eigenvalues --   -0.64326  -0.62256  -0.60096  -0.58579  -0.56733
 Alpha  occ. eigenvalues --   -0.55418  -0.54406  -0.53244  -0.53000  -0.51822
 Alpha  occ. eigenvalues --   -0.51548  -0.49315  -0.49037  -0.48788  -0.47087
 Alpha  occ. eigenvalues --   -0.45855  -0.45068  -0.44975  -0.44848  -0.42971
 Alpha  occ. eigenvalues --   -0.37497  -0.36510
 Alpha virt. eigenvalues --    0.04832   0.11146   0.16334   0.21287   0.23519
 Alpha virt. eigenvalues --    0.25194   0.27210   0.27330   0.28123   0.28241
 Alpha virt. eigenvalues --    0.28990   0.30853   0.32229   0.32418   0.32440

 Mulliken charges:
               1
     1  C   -0.297374
     2  C   -0.298754
     3  C   -0.475094
     4  H    0.148130
     5  H    0.146130
     6  H    0.152228
     7  H    0.150643
     8  H    0.153007
     9  H    0.154821
    10  H    0.158330
    11  C   -0.298288
    12  C   -0.298513
    13  C   -0.483947
    14  H    0.148944
    15  H    0.152642
    16  H    0.146242
    17  H    0.147925
    18  H    0.183168
    19  H    0.148513
    20  H    0.155502
    21  C   -0.170433
    22  C   -0.218589
    23  C   -0.170780
    24  C    0.158461
    25  C   -0.170840
    26  C   -0.218601
    27  H    0.226282
    28  H    0.224110
    29  H    0.276119
    30  H    0.276038
    31  H    0.224100
    32  N    0.487706
    33  O   -0.459272
    34  O   -0.458557
 Sum of Mulliken charges =  -0.00000

 Dipole moment (field-independent basis, Debye):
    X=             -3.3668    Y=              3.8534    Z=             -1.5726  Tot=              5.3533
 Quadrupole moment (field-independent basis, Debye-Ang):
   XX=            -79.7854   YY=            -97.0656   ZZ=            -91.4922
   XY=            -10.5770   XZ=              4.5819   YZ=              3.3283

 Normal termination of Gaussian 16 at Thu May  6 06:01:59 2021.
