 Gaussian 16, Revision A.03,
 Gaussian 16:  EM64L-G16RevA.03 25-Dec-2016

 -------------
 #p 6-31g* mp2
 -------------

 ------------------------------------------------------
 Input file generated by CHIRIPA (05-May-2021 14:51:14)
 ------------------------------------------------------
 Symbolic Z-matrix:
 Charge =  0 Multiplicity = 1

                         Standard orientation:
 ---------------------------------------------------------------------
 Center     Atomic      Atomic             Coordinates (Angstroms)
 Number     Number       Type             X           Y           Z
 ---------------------------------------------------------------------
      1          6           0        4.171901    0.093588   -0.310877
      2          6           0        5.156012    1.180260    0.123467
      3          6           0        6.190778    1.505668   -0.954106
      4          1           0        4.730899   -0.815709   -0.570964
      5          1           0        3.659081    0.417995   -1.226939
      6          1           0        5.665823    0.854496    1.039210
      7          1           0        4.594592    2.087015    0.382734
      8          1           0        5.698842    1.855350   -1.867519
      9          1           0        6.776159    0.615828   -1.207312
     10          1           0        6.884163    2.284886   -0.622600
     11          6           0        3.131266   -0.242756    0.755743
     12          6           0        2.147155   -1.329428    0.321400
     13          6           0        1.112389   -1.654836    1.398973
     14          1           0        3.644086   -0.567163    1.671806
     15          1           0        2.572268    0.666541    1.015831
     16          1           0        2.708575   -2.236183    0.062133
     17          1           0        1.637345   -1.003664   -0.594344
     18          1           0        0.527008   -0.764996    1.652179
     19          1           0        1.604325   -2.004518    2.312386
     20          1           0        0.419004   -2.434054    1.067467
     21          6           0       -3.129535   -0.394197   -0.524330
     22          6           0       -3.425420   -1.873228   -0.273524
     23          6           0       -2.372121   -2.798535   -0.883576
     24          1           0       -3.067179   -0.217729   -1.606880
     25          1           0       -2.141460   -0.149780   -0.110369
     26          1           0       -4.413236   -2.114455   -0.686615
     27          1           0       -3.487268   -2.046158    0.808550
     28          1           0       -1.383484   -2.586486   -0.463776
     29          1           0       -2.314714   -2.655170   -1.967435
     30          1           0       -2.603251   -3.851091   -0.692355
     31          6           0       -4.173632    0.543365    0.079463
     32          6           0       -3.877748    2.022396   -0.171341
     33          6           0       -4.931046    2.947704    0.438708
     34          1           0       -5.161707    0.298949   -0.334499
     35          1           0       -4.235988    0.366897    1.162013
     36          1           0       -3.815900    2.195326   -1.253417
     37          1           0       -2.889930    2.263623    0.241748
     38          1           0       -4.988454    2.804339    1.522569
     39          1           0       -5.919684    2.735653    0.018909
     40          1           0       -4.699917    4.000259    0.247488
 ---------------------------------------------------------------------

 SCF Done:  E(RHF) =  -470.733309357     A.U. after   11 cycles
 E2 =    -0.1582590800D+01 EUMP2 =    -0.47231590015649D+03

 The electronic state is 1-A.
 Alpha  occ. eigenvalues --  -11.21637 -11.21613 -11.21608 -11.21579 -11.21427
 Alpha  occ. eigenvalues --  -11.21396 -11.21366 -11.21336 -11.21131 -11.21078
 Alpha  occ. eigenvalues --  -11.21076 -11.21027  -1.08456  -1.08419  -1.03570
 Alpha  occ. eigenvalues --   -1.03510  -0.96032  -0.95952  -0.87055  -0.86964
 Alpha  occ. eigenvalues --   -0.79634  -0.79570  -0.78263  -0.78234  -0.65109
 Alpha  occ. eigenvalues --   -0.65029  -0.61024  -0.60886  -0.59421  -0.59309
 Alpha  occ. eigenvalues --   -0.57715  -0.57504  -0.55315  -0.55243  -0.52768
 Alpha  occ. eigenvalues --   -0.52661  -0.52496  -0.52283  -0.49955  -0.49889
 Alpha  occ. eigenvalues --   -0.47973  -0.47852  -0.46659  -0.46596  -0.45814
 Alpha  occ. eigenvalues --   -0.45768  -0.45730  -0.45688  -0.43794  -0.43774
 Alpha virt. eigenvalues --    0.20726   0.23149   0.23516   0.25028   0.26253
 Alpha virt. eigenvalues --    0.26712   0.26920   0.27348   0.27803   0.29186
 Alpha virt. eigenvalues --    0.30337   0.31250   0.31673   0.31805   0.32063

 Mulliken charges:
               1
     1  C   -0.298356
     2  C   -0.299687
     3  C   -0.475730
     4  H    0.149763
     5  H    0.149754
     6  H    0.151926
     7  H    0.151944
     8  H    0.155256
     9  H    0.155219
    10  H    0.160283
    11  C   -0.298267
    12  C   -0.300635
    13  C   -0.481489
    14  H    0.149651
    15  H    0.149521
    16  H    0.152401
    17  H    0.153035
    18  H    0.154886
    19  H    0.155841
    20  H    0.165101
    21  C   -0.299608
    22  C   -0.298917
    23  C   -0.483157
    24  H    0.149390
    25  H    0.150672
    26  H    0.151821
    27  H    0.152164
    28  H    0.162428
    29  H    0.155026
    30  H    0.159937
    31  C   -0.298334
    32  C   -0.299550
    33  C   -0.475699
    34  H    0.149567
    35  H    0.149805
    36  H    0.151874
    37  H    0.151497
    38  H    0.155243
    39  H    0.155248
    40  H    0.160175
 Sum of Mulliken charges =  -0.00000

 Dipole moment (field-independent basis, Debye):
    X=              0.0235    Y=             -0.0061    Z=              0.0051  Tot=              0.0248
 Quadrupole moment (field-independent basis, Debye-Ang):
   XX=            -85.2211   YY=            -85.0429   ZZ=            -84.4935
   XY=             -0.2216   XZ=              1.4986   YZ=             -0.3477

 Normal termination of Gaussian 16 at Wed May  5 15:24:30 2021.
