 Gaussian 16, Revision A.03,
 Gaussian 16:  EM64L-G16RevA.03 25-Dec-2016

 -------------
 #p 6-31g* mp2
 -------------

 ------------------------------------------------------
 Input file generated by CHIRIPA (05-May-2021 14:51:11)
 ------------------------------------------------------
 Symbolic Z-matrix:
 Charge =  0 Multiplicity = 1

                         Standard orientation:
 ---------------------------------------------------------------------
 Center     Atomic      Atomic             Coordinates (Angstroms)
 Number     Number       Type             X           Y           Z
 ---------------------------------------------------------------------
      1          6           0       -3.965004   -0.555926   -0.466943
      2          6           0       -3.202002   -1.738336    0.131153
      3          6           0       -3.580931   -3.072675   -0.512078
      4          1           0       -5.043909   -0.727365   -0.350682
      5          1           0       -3.770205   -0.511591   -1.547444
      6          1           0       -3.397083   -1.779597    1.210439
      7          1           0       -2.124783   -1.563972    0.013626
      8          1           0       -3.369895   -3.056234   -1.586226
      9          1           0       -4.649424   -3.273084   -0.382614
     10          1           0       -3.023722   -3.904267   -0.069548
     11          6           0       -3.597064    0.784970    0.165787
     12          6           0       -4.360066    1.967380   -0.432309
     13          6           0       -3.981137    3.301719    0.210922
     14          1           0       -3.791863    0.740635    1.246289
     15          1           0       -2.518159    0.956409    0.049526
     16          1           0       -5.437285    1.793017   -0.314782
     17          1           0       -4.164985    2.008642   -1.511594
     18          1           0       -2.912644    3.502128    0.081458
     19          1           0       -4.192173    3.285278    1.285071
     20          1           0       -4.538346    4.133311   -0.231607
     21          6           0        3.148980   -0.040043    0.572944
     22          6           0        2.084628   -1.093004    0.262440
     23          6           0        0.826109   -0.930848    1.115453
     24          1           0        3.415351   -0.099851    1.637093
     25          1           0        2.722927    0.960120    0.413110
     26          1           0        2.512986   -2.090918    0.421480
     27          1           0        1.820900   -1.030812   -0.801137
     28          1           0        0.372704    0.051863    0.950212
     29          1           0        1.068722   -1.014267    2.179774
     30          1           0        0.078502   -1.693820    0.877093
     31          6           0        4.413087   -0.189001   -0.271788
     32          6           0        5.477440    0.863960    0.038716
     33          6           0        6.735958    0.701804   -0.814297
     34          1           0        4.839142   -1.189164   -0.111955
     35          1           0        4.146718   -0.129194   -1.335938
     36          1           0        5.741169    0.801768    1.102293
     37          1           0        5.049082    1.861874   -0.120324
     38          1           0        6.493346    0.785223   -1.878619
     39          1           0        7.189364   -0.280907   -0.649056
     40          1           0        7.483567    1.464775   -0.575937
 ---------------------------------------------------------------------

 SCF Done:  E(RHF) =  -470.733175582     A.U. after   11 cycles
 E2 =    -0.1582629196D+01 EUMP2 =    -0.47231580477838D+03

 The electronic state is 1-A.
 Alpha  occ. eigenvalues --  -11.21626 -11.21614 -11.21586 -11.21521 -11.21423
 Alpha  occ. eigenvalues --  -11.21374 -11.21364 -11.21314 -11.21082 -11.21072
 Alpha  occ. eigenvalues --  -11.21065 -11.21046  -1.08450  -1.08398  -1.03556
 Alpha  occ. eigenvalues --   -1.03497  -0.96001  -0.95954  -0.87029  -0.86960
 Alpha  occ. eigenvalues --   -0.79656  -0.79526  -0.78270  -0.78199  -0.65096
 Alpha  occ. eigenvalues --   -0.65021  -0.60971  -0.60901  -0.59469  -0.59232
 Alpha  occ. eigenvalues --   -0.57668  -0.57505  -0.55288  -0.55241  -0.52762
 Alpha  occ. eigenvalues --   -0.52620  -0.52439  -0.52352  -0.49946  -0.49891
 Alpha  occ. eigenvalues --   -0.48005  -0.47804  -0.46671  -0.46574  -0.45813
 Alpha  occ. eigenvalues --   -0.45771  -0.45714  -0.45637  -0.43792  -0.43704
 Alpha virt. eigenvalues --    0.21594   0.23099   0.23706   0.24395   0.25987
 Alpha virt. eigenvalues --    0.26755   0.27031   0.27170   0.27837   0.29340
 Alpha virt. eigenvalues --    0.30015   0.31495   0.31554   0.31888   0.31988

 Mulliken charges:
               1
     1  C   -0.297710
     2  C   -0.307068
     3  C   -0.475563
     4  H    0.149453
     5  H    0.149054
     6  H    0.151806
     7  H    0.159931
     8  H    0.154875
     9  H    0.155177
    10  H    0.159736
    11  C   -0.299448
    12  C   -0.299655
    13  C   -0.475593
    14  H    0.149769
    15  H    0.150671
    16  H    0.151996
    17  H    0.151725
    18  H    0.154796
    19  H    0.155307
    20  H    0.160187
    21  C   -0.298444
    22  C   -0.299658
    23  C   -0.481688
    24  H    0.149845
    25  H    0.149393
    26  H    0.152069
    27  H    0.151555
    28  H    0.155780
    29  H    0.155589
    30  H    0.165984
    31  C   -0.298269
    32  C   -0.299659
    33  C   -0.475711
    34  H    0.149593
    35  H    0.149564
    36  H    0.152007
    37  H    0.151922
    38  H    0.155160
    39  H    0.155213
    40  H    0.160308
 Sum of Mulliken charges =  -0.00000

 Dipole moment (field-independent basis, Debye):
    X=              0.0193    Y=             -0.0046    Z=              0.0170  Tot=              0.0261
 Quadrupole moment (field-independent basis, Debye-Ang):
   XX=            -85.1366   YY=            -85.5273   ZZ=            -84.2049
   XY=             -0.3825   XZ=              0.2149   YZ=             -0.9324

 Normal termination of Gaussian 16 at Wed May  5 18:16:56 2021.
