 Gaussian 16, Revision A.03,
 Gaussian 16:  EM64L-G16RevA.03 25-Dec-2016

 -------------
 #p 6-31g* mp2
 -------------

 ------------------------------------------------------
 Input file generated by CHIRIPA (05-May-2021 14:53:13)
 ------------------------------------------------------
 Symbolic Z-matrix:
 Charge =  0 Multiplicity = 1

                         Standard orientation:
 ---------------------------------------------------------------------
 Center     Atomic      Atomic             Coordinates (Angstroms)
 Number     Number       Type             X           Y           Z
 ---------------------------------------------------------------------
      1          6           0        4.936212   -0.392767    0.392920
      2          6           0        6.019213   -1.029083   -0.478972
      3          6           0        6.771215   -2.151215    0.237345
      4          1           0        5.396400   -0.000425    1.310111
      5          1           0        4.225262   -1.169321    0.707417
      6          1           0        6.727137   -0.251312   -0.792869
      7          1           0        5.556423   -1.419785   -1.394282
      8          1           0        6.081716   -2.947318    0.536362
      9          1           0        7.259082   -1.772206    1.141191
     10          1           0        7.540698   -2.592028   -0.404089
     11          6           0        4.175643    0.730691   -0.309296
     12          6           0        3.092642    1.367007    0.562596
     13          6           0        2.340641    2.489139   -0.153721
     14          1           0        4.886593    1.507245   -0.623793
     15          1           0        3.715455    0.338350   -1.226487
     16          1           0        3.555433    1.757709    1.477906
     17          1           0        2.384718    0.589236    0.876493
     18          1           0        1.852773    2.110130   -1.057567
     19          1           0        3.030139    3.285243   -0.452737
     20          1           0        1.571157    2.929953    0.487714
     21          6           0       -1.345882    1.070125   -0.179337
     22          6           0       -2.527022    1.797617    0.000063
     23          6           0       -3.759073    1.142050    0.082706
     24          6           0       -3.773305   -0.248219   -0.018486
     25          6           0       -2.613742   -1.000994   -0.197459
     26          6           0       -1.392928   -0.324400   -0.277353
     27          1           0       -0.393160    1.587552   -0.242470
     28          1           0       -2.493504    2.880704    0.076510
     29          1           0       -4.688681    1.680581    0.221388
     30          1           0       -2.678966   -2.079822   -0.270219
     31          1           0       -0.477234   -0.891965   -0.416700
     32          7           0       -5.071675   -0.953369    0.067550
     33          8           0       -5.057355   -2.178911   -0.024511
     34          8           0       -6.079070   -0.267169    0.225416
 ---------------------------------------------------------------------

 SCF Done:  E(RHF) =  -669.535278076     A.U. after   15 cycles
 E2 =    -0.2091417878D+01 EUMP2 =    -0.67162669595431D+03

 The electronic state is 1-A.
 Alpha  occ. eigenvalues --  -20.60708 -20.60703 -15.85762 -11.31108 -11.27687
 Alpha  occ. eigenvalues --  -11.27680 -11.27318 -11.26684 -11.26666 -11.22794
 Alpha  occ. eigenvalues --  -11.22526 -11.22338 -11.22231 -11.22135 -11.21582
 Alpha  occ. eigenvalues --   -1.59784  -1.39338  -1.19278  -1.09340  -1.08667
 Alpha  occ. eigenvalues --   -1.04684  -1.04471  -0.96941  -0.95504  -0.87958
 Alpha  occ. eigenvalues --   -0.86078  -0.82348  -0.80541  -0.79088  -0.77403
 Alpha  occ. eigenvalues --   -0.71979  -0.71108  -0.70408  -0.65977  -0.64926
 Alpha  occ. eigenvalues --   -0.64695  -0.62045  -0.61869  -0.60357  -0.58509
 Alpha  occ. eigenvalues --   -0.56370  -0.55046  -0.53580  -0.53340  -0.53007
 Alpha  occ. eigenvalues --   -0.52774  -0.50844  -0.48844  -0.48736  -0.48735
 Alpha  occ. eigenvalues --   -0.47567  -0.46639  -0.46538  -0.44748  -0.44701
 Alpha  occ. eigenvalues --   -0.37242  -0.36297
 Alpha virt. eigenvalues --    0.05130   0.11346   0.16598   0.19349   0.22581
 Alpha virt. eigenvalues --    0.23976   0.25368   0.26180   0.26664   0.27497
 Alpha virt. eigenvalues --    0.29650   0.30155   0.30805   0.31208   0.31822

 Mulliken charges:
               1
     1  C   -0.298710
     2  C   -0.300300
     3  C   -0.476174
     4  H    0.151900
     5  H    0.148786
     6  H    0.153311
     7  H    0.152165
     8  H    0.155669
     9  H    0.156306
    10  H    0.162283
    11  C   -0.299201
    12  C   -0.300907
    13  C   -0.486550
    14  H    0.152810
    15  H    0.148838
    16  H    0.158032
    17  H    0.148364
    18  H    0.151786
    19  H    0.165758
    20  H    0.157703
    21  C   -0.179790
    22  C   -0.222327
    23  C   -0.170499
    24  C    0.157947
    25  C   -0.170553
    26  C   -0.223288
    27  H    0.243781
    28  H    0.223482
    29  H    0.275248
    30  H    0.275153
    31  H    0.222389
    32  N    0.488017
    33  O   -0.460771
    34  O   -0.460659
 Sum of Mulliken charges =  -0.00000

 Dipole moment (field-independent basis, Debye):
    X=              4.9009    Y=              2.5293    Z=             -0.2827  Tot=              5.5223
 Quadrupole moment (field-independent basis, Debye-Ang):
   XX=           -127.5218   YY=            -92.2958   ZZ=            -95.6042
   XY=            -11.8115   XZ=              0.8249   YZ=              1.1924

 Normal termination of Gaussian 16 at Wed May  5 21:48:18 2021.
