 Gaussian 16, Revision A.03,
 Gaussian 16:  EM64L-G16RevA.03 25-Dec-2016

 -------------
 #p 6-31g* mp2
 -------------

 ------------------------------------------------------
 Input file generated by CHIRIPA (05-May-2021 14:57:22)
 ------------------------------------------------------
 Symbolic Z-matrix:
 Charge =  0 Multiplicity = 1

                         Standard orientation:
 ---------------------------------------------------------------------
 Center     Atomic      Atomic             Coordinates (Angstroms)
 Number     Number       Type             X           Y           Z
 ---------------------------------------------------------------------
      1          6           0       -6.267124   -1.347132    0.267589
      2          6           0       -5.120462   -1.715761    0.978786
      3          6           0       -3.939436   -0.978208    0.853332
      4          6           0       -3.940515    0.127220    0.004027
      5          6           0       -5.066641    0.519716   -0.717830
      6          6           0       -6.236608   -0.232535   -0.576960
      7          1           0       -7.180278   -1.925790    0.371033
      8          1           0       -5.141250   -2.580903    1.635401
      9          1           0       -3.037327   -1.241333    1.392203
     10          1           0       -5.015236    1.387075   -1.364717
     11          1           0       -7.125611    0.056079   -1.130512
     12          7           0       -2.696070    0.915815   -0.136945
     13          8           0       -2.722926    1.885524   -0.891650
     14          8           0       -1.717381    0.549274    0.509934
     15          6           0        2.612011    1.977729    0.309548
     16          6           0        3.910966    2.003746    0.827776
     17          6           0        4.769368    0.915127    0.647215
     18          6           0        4.293878   -0.188184   -0.059823
     19          6           0        3.005111   -0.244154   -0.588249
     20          6           0        2.164019    0.855839   -0.395567
     21          1           0        1.951907    2.827812    0.454521
     22          1           0        4.261578    2.873683    1.375796
     23          1           0        5.779753    0.908755    1.037729
     24          1           0        2.684006   -1.125439   -1.130143
     25          1           0        1.155733    0.832854   -0.799148
     26          7           0        5.193467   -1.346677   -0.257391
     27          8           0        4.750579   -2.306802   -0.884007
     28          8           0        6.324420   -1.272643    0.218113
 ---------------------------------------------------------------------

 SCF Done:  E(RHF) =  -868.340597919     A.U. after   16 cycles
 E2 =    -0.2598081850D+01 EUMP2 =    -0.87093867976906D+03

 The electronic state is 1-A.
 Alpha  occ. eigenvalues --  -20.61768 -20.61762 -20.60008 -20.60003 -15.86776
 Alpha  occ. eigenvalues --  -15.85049 -11.31832 -11.30180 -11.28364 -11.28355
 Alpha  occ. eigenvalues --  -11.28045 -11.27307 -11.27293 -11.26742 -11.26636
 Alpha  occ. eigenvalues --  -11.26283 -11.25717 -11.25431  -1.60834  -1.59088
 Alpha  occ. eigenvalues --   -1.40390  -1.38649  -1.19976  -1.18296  -1.09431
 Alpha  occ. eigenvalues --   -1.07713  -1.05329  -1.03649  -0.96316  -0.94602
 Alpha  occ. eigenvalues --   -0.86741  -0.85038  -0.83155  -0.81440  -0.78237
 Alpha  occ. eigenvalues --   -0.76535  -0.73007  -0.72129  -0.71274  -0.71076
 Alpha  occ. eigenvalues --   -0.70408  -0.69368  -0.65629  -0.65327  -0.63928
 Alpha  occ. eigenvalues --   -0.63596  -0.62677  -0.60991  -0.55841  -0.54099
 Alpha  occ. eigenvalues --   -0.53677  -0.53414  -0.52009  -0.51712  -0.49777
 Alpha  occ. eigenvalues --   -0.49747  -0.48044  -0.48002  -0.45857  -0.44108
 Alpha  occ. eigenvalues --   -0.37937  -0.36917  -0.36238  -0.35252
 Alpha virt. eigenvalues --    0.04256   0.05963   0.10742   0.12410   0.15815
 Alpha virt. eigenvalues --    0.17548   0.20924   0.22691   0.26858   0.27778
 Alpha virt. eigenvalues --    0.28623   0.29479   0.30523   0.31980   0.32344

 Mulliken charges:
               1
     1  C   -0.169605
     2  C   -0.218527
     3  C   -0.170624
     4  C    0.157266
     5  C   -0.170487
     6  C   -0.218585
     7  H    0.228095
     8  H    0.226067
     9  H    0.276531
    10  H    0.275906
    11  H    0.225398
    12  N    0.488628
    13  O   -0.460875
    14  O   -0.466322
    15  C   -0.171963
    16  C   -0.219282
    17  C   -0.173553
    18  C    0.157878
    19  C   -0.174440
    20  C   -0.218768
    21  H    0.230458
    22  H    0.219685
    23  H    0.271564
    24  H    0.272051
    25  H    0.242167
    26  N    0.488192
    27  O   -0.463273
    28  O   -0.463583
 Sum of Mulliken charges =  -0.00000

 Dipole moment (field-independent basis, Debye):
    X=             -8.1851    Y=              1.3446    Z=              1.1832  Tot=              8.3787
 Quadrupole moment (field-independent basis, Debye-Ang):
   XX=            -95.1675   YY=           -105.0049   ZZ=           -102.7318
   XY=             29.6355   XZ=              4.9061   YZ=             -1.4151

 Normal termination of Gaussian 16 at Fri May  7 06:22:50 2021.
