 Gaussian 16, Revision A.03,
 Gaussian 16:  EM64L-G16RevA.03 25-Dec-2016

 -------------
 #p 6-31g* mp2
 -------------

 ------------------------------------------------------
 Input file generated by CHIRIPA (05-May-2021 14:51:13)
 ------------------------------------------------------
 Symbolic Z-matrix:
 Charge =  0 Multiplicity = 1

                         Standard orientation:
 ---------------------------------------------------------------------
 Center     Atomic      Atomic             Coordinates (Angstroms)
 Number     Number       Type             X           Y           Z
 ---------------------------------------------------------------------
      1          6           0        4.114487   -0.603352   -0.038318
      2          6           0        3.034615   -1.675218   -0.189856
      3          6           0        3.597099   -3.095213   -0.119009
      4          1           0        4.870157   -0.739562   -0.824037
      5          1           0        4.631398   -0.746551    0.920688
      6          1           0        2.518971   -1.529195   -1.147669
      7          1           0        2.281329   -1.536322    0.596199
      8          1           0        4.094688   -3.265002    0.841292
      9          1           0        4.333680   -3.257834   -0.912484
     10          1           0        2.808048   -3.845566   -0.229602
     11          6           0        3.567699    0.821440   -0.107007
     12          6           0        4.647571    1.893307    0.044532
     13          6           0        4.085088    3.313302   -0.026316
     14          1           0        3.050788    0.964640   -1.066013
     15          1           0        2.812030    0.957651    0.678713
     16          1           0        5.400858    1.754411   -0.741524
     17          1           0        5.163215    1.747284    1.002344
     18          1           0        3.348506    3.475923    0.767159
     19          1           0        3.587499    3.483091   -0.986617
     20          1           0        4.874138    4.063654    0.084277
     21          6           0       -3.199796   -0.165561    0.483729
     22          6           0       -2.088201   -0.935917   -0.229639
     23          6           0       -0.811651   -1.040512    0.605389
     24          1           0       -2.838345    0.841903    0.731345
     25          1           0       -3.424719   -0.660420    1.438674
     26          1           0       -1.866402   -0.440544   -1.183593
     27          1           0       -2.452407   -1.941599   -0.475756
     28          1           0       -1.011133   -1.554208    1.551393
     29          1           0       -0.421800   -0.044624    0.839536
     30          1           0       -0.030232   -1.595003    0.076443
     31          6           0       -4.482390   -0.052528   -0.338405
     32          6           0       -5.593984    0.717829    0.374964
     33          6           0       -6.870535    0.822423   -0.460064
     34          1           0       -4.257467    0.442331   -1.293349
     35          1           0       -4.843842   -1.059991   -0.586022
     36          1           0       -5.229780    1.723511    0.621081
     37          1           0       -5.815785    0.222455    1.328916
     38          1           0       -7.260387   -0.173465   -0.694211
     39          1           0       -6.671053    1.336119   -1.406068
     40          1           0       -7.651955    1.376914    0.068881
 ---------------------------------------------------------------------

 SCF Done:  E(RHF) =  -470.732885526     A.U. after   11 cycles
 E2 =    -0.1582755104D+01 EUMP2 =    -0.47231564062925D+03

 The electronic state is 1-A.
 Alpha  occ. eigenvalues --  -11.21591 -11.21588 -11.21564 -11.21531 -11.21382
 Alpha  occ. eigenvalues --  -11.21381 -11.21322 -11.21322 -11.21071 -11.21061
 Alpha  occ. eigenvalues --  -11.21052 -11.20974  -1.08420  -1.08395  -1.03539
 Alpha  occ. eigenvalues --   -1.03477  -0.95978  -0.95938  -0.87020  -0.86936
 Alpha  occ. eigenvalues --   -0.79684  -0.79479  -0.78254  -0.78185  -0.65048
 Alpha  occ. eigenvalues --   -0.65028  -0.60920  -0.60897  -0.59526  -0.59162
 Alpha  occ. eigenvalues --   -0.57675  -0.57455  -0.55258  -0.55231  -0.52767
 Alpha  occ. eigenvalues --   -0.52598  -0.52400  -0.52336  -0.49902  -0.49896
 Alpha  occ. eigenvalues --   -0.47998  -0.47761  -0.46619  -0.46599  -0.45802
 Alpha  occ. eigenvalues --   -0.45748  -0.45692  -0.45652  -0.43800  -0.43628
 Alpha virt. eigenvalues --    0.22230   0.23025   0.23721   0.24604   0.25741
 Alpha virt. eigenvalues --    0.26695   0.26769   0.27371   0.27836   0.29184
 Alpha virt. eigenvalues --    0.30446   0.31064   0.31481   0.31810   0.32107

 Mulliken charges:
               1
     1  C   -0.297771
     2  C   -0.305687
     3  C   -0.475928
     4  H    0.149300
     5  H    0.149390
     6  H    0.151086
     7  H    0.160143
     8  H    0.155235
     9  H    0.155063
    10  H    0.159893
    11  C   -0.298767
    12  C   -0.299618
    13  C   -0.475666
    14  H    0.149315
    15  H    0.150288
    16  H    0.151935
    17  H    0.151946
    18  H    0.155023
    19  H    0.155038
    20  H    0.160252
    21  C   -0.298482
    22  C   -0.299766
    23  C   -0.481475
    24  H    0.149563
    25  H    0.149325
    26  H    0.151790
    27  H    0.151585
    28  H    0.153947
    29  H    0.154890
    30  H    0.168353
    31  C   -0.298218
    32  C   -0.299594
    33  C   -0.475680
    34  H    0.149461
    35  H    0.149552
    36  H    0.151919
    37  H    0.151860
    38  H    0.155139
    39  H    0.155160
    40  H    0.160200
 Sum of Mulliken charges =  -0.00000

 Dipole moment (field-independent basis, Debye):
    X=              0.0170    Y=             -0.0082    Z=              0.0057  Tot=              0.0197
 Quadrupole moment (field-independent basis, Debye-Ang):
   XX=            -85.8644   YY=            -85.2592   ZZ=            -83.8275
   XY=              0.7397   XZ=             -0.7157   YZ=             -0.2774

 Normal termination of Gaussian 16 at Wed May  5 19:59:51 2021.
