 Gaussian 16, Revision A.03,
 Gaussian 16:  EM64L-G16RevA.03 25-Dec-2016

 -------------
 #p 6-31g* mp2
 -------------

 ------------------------------------------------------
 Input file generated by CHIRIPA (05-May-2021 14:57:25)
 ------------------------------------------------------
 Symbolic Z-matrix:
 Charge =  0 Multiplicity = 1

                         Standard orientation:
 ---------------------------------------------------------------------
 Center     Atomic      Atomic             Coordinates (Angstroms)
 Number     Number       Type             X           Y           Z
 ---------------------------------------------------------------------
      1          6           0       -4.684377    1.956974    1.012740
      2          6           0       -4.815358    0.669650    1.543929
      3          6           0       -4.174282   -0.416182    0.940159
      4          6           0       -3.406615   -0.177508   -0.198705
      5          6           0       -3.256817    1.093308   -0.751768
      6          6           0       -3.906895    2.164329   -0.131396
      7          1           0       -5.185877    2.794721    1.488211
      8          1           0       -5.418517    0.505648    2.432382
      9          1           0       -4.258655   -1.423177    1.330365
     10          1           0       -2.648778    1.225527   -1.638461
     11          1           0       -3.803389    3.162992   -0.546128
     12          7           0       -2.723171   -1.319190   -0.846678
     13          8           0       -2.052579   -1.082521   -1.849140
     14          8           0       -2.871021   -2.429090   -0.339826
     15          6           0        2.494662   -2.283944    0.476995
     16          6           0        3.715853   -1.956113    1.075109
     17          6           0        4.292848   -0.699519    0.868727
     18          6           0        3.618308    0.209118    0.054683
     19          6           0        2.400422   -0.087780   -0.555148
     20          6           0        1.841994   -1.350377   -0.334794
     21          1           0        2.053649   -3.262429    0.642745
     22          1           0        4.224967   -2.679145    1.706040
     23          1           0        5.237209   -0.419492    1.319488
     24          1           0        1.916565    0.653925   -1.178986
     25          1           0        0.893492   -1.602227   -0.800584
     26          7           0        4.219319    1.542596   -0.171201
     27          8           0        3.605078    2.325417   -0.892683
     28          8           0        5.293252    1.779705    0.377511
 ---------------------------------------------------------------------

 SCF Done:  E(RHF) =  -868.340478291     A.U. after   16 cycles
 E2 =    -0.2598309887D+01 EUMP2 =    -0.87093878817845D+03

 The electronic state is 1-A.
 Alpha  occ. eigenvalues --  -20.61707 -20.61691 -20.60371 -20.60365 -15.86715
 Alpha  occ. eigenvalues --  -15.85414 -11.31756 -11.30603 -11.28288 -11.28276
 Alpha  occ. eigenvalues --  -11.27954 -11.27225 -11.27198 -11.27167 -11.27076
 Alpha  occ. eigenvalues --  -11.26773 -11.26155 -11.25907  -1.60769  -1.59449
 Alpha  occ. eigenvalues --   -1.40327  -1.39008  -1.19896  -1.18734  -1.09350
 Alpha  occ. eigenvalues --   -1.08152  -1.05246  -1.04091  -0.96237  -0.95026
 Alpha  occ. eigenvalues --   -0.86659  -0.85490  -0.83078  -0.81852  -0.78166
 Alpha  occ. eigenvalues --   -0.76933  -0.72934  -0.72074  -0.71637  -0.70995
 Alpha  occ. eigenvalues --   -0.70770  -0.69825  -0.65548  -0.65240  -0.64370
 Alpha  occ. eigenvalues --   -0.64044  -0.62596  -0.61423  -0.55753  -0.54573
 Alpha  occ. eigenvalues --   -0.53594  -0.53330  -0.52458  -0.52144  -0.49711
 Alpha  occ. eigenvalues --   -0.49670  -0.48404  -0.48374  -0.45793  -0.44453
 Alpha  occ. eigenvalues --   -0.37853  -0.36832  -0.36704  -0.35703
 Alpha virt. eigenvalues --    0.04303   0.05563   0.10825   0.11950   0.15863
 Alpha virt. eigenvalues --    0.17117   0.20994   0.22247   0.26934   0.27661
 Alpha virt. eigenvalues --    0.28341   0.29010   0.30640   0.31816   0.32128

 Mulliken charges:
               1
     1  C   -0.169456
     2  C   -0.218434
     3  C   -0.170666
     4  C    0.157439
     5  C   -0.170901
     6  C   -0.218012
     7  H    0.228428
     8  H    0.225186
     9  H    0.275318
    10  H    0.275788
    11  H    0.227173
    12  N    0.487508
    13  O   -0.465985
    14  O   -0.459685
    15  C   -0.172082
    16  C   -0.218797
    17  C   -0.172918
    18  C    0.158179
    19  C   -0.173665
    20  C   -0.227910
    21  H    0.228649
    22  H    0.221131
    23  H    0.272940
    24  H    0.274001
    25  H    0.243915
    26  N    0.488182
    27  O   -0.462959
    28  O   -0.462368
 Sum of Mulliken charges =  -0.00000

 Dipole moment (field-independent basis, Debye):
    X=             -4.9472    Y=             -0.6707    Z=              3.1001  Tot=              5.8767
 Quadrupole moment (field-independent basis, Debye-Ang):
   XX=           -101.1036   YY=           -106.6633   ZZ=           -102.5371
   XY=            -31.4317   XZ=             -3.9594   YZ=             -4.5290

 Normal termination of Gaussian 16 at Thu May  6 22:50:30 2021.
