 Gaussian 16, Revision A.03,
 Gaussian 16:  EM64L-G16RevA.03 25-Dec-2016

 -------------
 #p 6-31g* mp2
 -------------

 ------------------------------------------------------
 Input file generated by CHIRIPA (05-May-2021 14:57:21)
 ------------------------------------------------------
 Symbolic Z-matrix:
 Charge =  0 Multiplicity = 1

                         Standard orientation:
 ---------------------------------------------------------------------
 Center     Atomic      Atomic             Coordinates (Angstroms)
 Number     Number       Type             X           Y           Z
 ---------------------------------------------------------------------
      1          6           0        3.119449   -2.227190   -0.204763
      2          6           0        2.294192   -1.120740    0.021602
      3          6           0        2.838989    0.163011    0.120220
      4          6           0        4.219386    0.304545   -0.013060
      5          6           0        5.067901   -0.778158   -0.239040
      6          6           0        4.501234   -2.052675   -0.334134
      7          1           0        2.687743   -3.220852   -0.280003
      8          1           0        1.220738   -1.253280    0.122479
      9          1           0        2.223301    1.036953    0.295071
     10          1           0        6.134376   -0.614518   -0.335325
     11          1           0        5.144571   -2.910138   -0.509973
     12          7           0        4.807714    1.658707    0.089477
     13          8           0        6.026882    1.756789   -0.031553
     14          8           0        4.038539    2.596376    0.288933
     15          6           0       -2.054553   -1.441951    0.518468
     16          6           0       -2.855455   -0.983676    1.569687
     17          6           0       -4.003482   -0.228993    1.310771
     18          6           0       -4.322336    0.050174   -0.017267
     19          6           0       -3.544589   -0.392185   -1.086248
     20          6           0       -2.401065   -1.145266   -0.803812
     21          1           0       -1.164488   -2.027585    0.728736
     22          1           0       -2.588790   -1.212566    2.597571
     23          1           0       -4.641348    0.138346    2.105508
     24          1           0       -3.836129   -0.148007   -2.100546
     25          1           0       -1.780944   -1.499853   -1.622203
     26          7           0       -5.535316    0.848276   -0.303820
     27          8           0       -5.794518    1.080706   -1.482559
     28          8           0       -6.203881    1.226284    0.655746
 ---------------------------------------------------------------------

 SCF Done:  E(RHF) =  -868.336520847     A.U. after   16 cycles
 E2 =    -0.2599789047D+01 EUMP2 =    -0.87093630989413D+03

 The electronic state is 1-A.
 Alpha  occ. eigenvalues --  -20.61227 -20.61222 -20.61208 -20.61202 -15.86288
 Alpha  occ. eigenvalues --  -15.86265 -11.31813 -11.31792 -11.28417 -11.28380
 Alpha  occ. eigenvalues --  -11.28368 -11.28359 -11.28298 -11.28221 -11.27546
 Alpha  occ. eigenvalues --  -11.27522 -11.27468 -11.27407  -1.60301  -1.60278
 Alpha  occ. eigenvalues --   -1.39850  -1.39826  -1.20009  -1.19998  -1.09408
 Alpha  occ. eigenvalues --   -1.09376  -1.05432  -1.05420  -0.96204  -0.96180
 Alpha  occ. eigenvalues --   -0.86850  -0.86816  -0.83044  -0.82986  -0.78036
 Alpha  occ. eigenvalues --   -0.77998  -0.72504  -0.72482  -0.71627  -0.71601
 Alpha  occ. eigenvalues --   -0.71216  -0.71116  -0.65680  -0.65659  -0.65536
 Alpha  occ. eigenvalues --   -0.65362  -0.62791  -0.62739  -0.56106  -0.55898
 Alpha  occ. eigenvalues --   -0.53780  -0.53746  -0.53523  -0.53491  -0.49277
 Alpha  occ. eigenvalues --   -0.49255  -0.49248  -0.49224  -0.45224  -0.45190
 Alpha  occ. eigenvalues --   -0.38050  -0.38005  -0.37037  -0.37002
 Alpha virt. eigenvalues --    0.04474   0.04524   0.10560   0.10641   0.15757
 Alpha virt. eigenvalues --    0.15968   0.18389   0.21865   0.25017   0.26722
 Alpha virt. eigenvalues --    0.27571   0.28795   0.30018   0.31258   0.31820

 Mulliken charges:
               1
     1  C   -0.171600
     2  C   -0.222747
     3  C   -0.171276
     4  C    0.159154
     5  C   -0.169864
     6  C   -0.218271
     7  H    0.223441
     8  H    0.216971
     9  H    0.278452
    10  H    0.277809
    11  H    0.225369
    12  N    0.487941
    13  O   -0.458745
    14  O   -0.458669
    15  C   -0.176245
    16  C   -0.217404
    17  C   -0.170085
    18  C    0.160069
    19  C   -0.169827
    20  C   -0.218753
    21  H    0.218112
    22  H    0.225676
    23  H    0.278356
    24  H    0.278202
    25  H    0.222513
    26  N    0.487914
    27  O   -0.458353
    28  O   -0.458140
 Sum of Mulliken charges =  -0.00000

 Dipole moment (field-independent basis, Debye):
    X=              2.1313    Y=             -7.4290    Z=              0.6443  Tot=              7.7555
 Quadrupole moment (field-independent basis, Debye-Ang):
   XX=           -153.6328   YY=           -108.6999   ZZ=           -100.6277
   XY=            -10.6768   XZ=             -7.8957   YZ=              0.7966

 Normal termination of Gaussian 16 at Thu May  6 03:18:34 2021.
