 Gaussian 16, Revision A.03,
 Gaussian 16:  EM64L-G16RevA.03 25-Dec-2016

 -------------
 #p 6-31g* mp2
 -------------

 ------------------------------------------------------
 Input file generated by CHIRIPA (05-May-2021 14:55:25)
 ------------------------------------------------------
 Symbolic Z-matrix:
 Charge =  0 Multiplicity = 1

                         Standard orientation:
 ---------------------------------------------------------------------
 Center     Atomic      Atomic             Coordinates (Angstroms)
 Number     Number       Type             X           Y           Z
 ---------------------------------------------------------------------
      1          6           0       -5.963156    1.300319    0.176888
      2          6           0       -5.948274   -0.014638   -0.299755
      3          6           0       -4.739202   -0.697832   -0.460811
      4          6           0       -3.558455   -0.032722   -0.134078
      5          6           0       -3.540516    1.276988    0.343025
      6          6           0       -4.761349    1.940806    0.496194
      7          1           0       -6.906961    1.823515    0.298937
      8          1           0       -6.880074   -0.514543   -0.548527
      9          1           0       -4.698768   -1.716193   -0.827861
     10          1           0       -2.595431    1.749028    0.582631
     11          1           0       -4.769877    2.961980    0.866565
     12          7           0       -2.272239   -0.745733   -0.300406
     13          8           0       -1.245693   -0.137574   -0.005477
     14          8           0       -2.315004   -1.899249   -0.722554
     15          6           0        5.543987   -0.070341   -0.121731
     16          6           0        6.100441    1.353398   -0.157921
     17          6           0        7.537417    1.413458   -0.676850
     18          1           0        6.190257   -0.693822    0.511160
     19          1           0        5.588126   -0.499608   -1.132263
     20          1           0        6.053986    1.780346    0.852116
     21          1           0        5.452665    1.973609   -0.790645
     22          1           0        7.596790    1.012605   -1.693902
     23          1           0        8.201527    0.818245   -0.041807
     24          1           0        7.915339    2.440457   -0.694364
     25          6           0        4.108336   -0.146723    0.394793
     26          6           0        3.551881   -1.570462    0.430984
     27          6           0        2.114906   -1.630521    0.949913
     28          1           0        4.064197    0.282544    1.405326
     29          1           0        3.462065    0.476758   -0.238098
     30          1           0        4.199659   -2.190673    1.063708
     31          1           0        3.598338   -1.997410   -0.579053
     32          1           0        1.450795   -1.035308    0.314870
     33          1           0        2.055533   -1.229669    1.966965
     34          1           0        1.736983   -2.657521    0.967427
 ---------------------------------------------------------------------

 SCF Done:  E(RHF) =  -669.536132811     A.U. after   15 cycles
 E2 =    -0.2090816092D+01 EUMP2 =    -0.67162694890362D+03

 The electronic state is 1-A.
 Alpha  occ. eigenvalues --  -20.60948 -20.60929 -15.85970 -11.31292 -11.27854
 Alpha  occ. eigenvalues --  -11.27850 -11.27592 -11.26861 -11.26851 -11.20979
 Alpha  occ. eigenvalues --  -11.20595 -11.20563 -11.20375 -11.20306 -11.19242
 Alpha  occ. eigenvalues --   -1.59996  -1.39553  -1.19459  -1.08863  -1.07505
 Alpha  occ. eigenvalues --   -1.04855  -1.02512  -0.95707  -0.94931  -0.86256
 Alpha  occ. eigenvalues --   -0.85941  -0.82539  -0.78615  -0.77591  -0.77272
 Alpha  occ. eigenvalues --   -0.72191  -0.71310  -0.70568  -0.65115  -0.64858
 Alpha  occ. eigenvalues --   -0.64145  -0.62202  -0.59910  -0.58388  -0.56539
 Alpha  occ. eigenvalues --   -0.55362  -0.54214  -0.53187  -0.52947  -0.51619
 Alpha  occ. eigenvalues --   -0.51361  -0.49176  -0.48940  -0.48640  -0.46880
 Alpha  occ. eigenvalues --   -0.45650  -0.44973  -0.44795  -0.44694  -0.42777
 Alpha  occ. eigenvalues --   -0.37439  -0.36456
 Alpha virt. eigenvalues --    0.04942   0.11199   0.16442   0.21334   0.23726
 Alpha virt. eigenvalues --    0.25396   0.27251   0.27546   0.28195   0.28380
 Alpha virt. eigenvalues --    0.29168   0.30901   0.32364   0.32504   0.32643

 Mulliken charges:
               1
     1  C   -0.170596
     2  C   -0.218604
     3  C   -0.170568
     4  C    0.157722
     5  C   -0.170833
     6  C   -0.218555
     7  H    0.225969
     8  H    0.223798
     9  H    0.275877
    10  H    0.275882
    11  H    0.223829
    12  N    0.490189
    13  O   -0.460685
    14  O   -0.458888
    15  C   -0.297458
    16  C   -0.298870
    17  C   -0.475149
    18  H    0.147720
    19  H    0.148699
    20  H    0.150418
    21  H    0.151264
    22  H    0.154628
    23  H    0.154258
    24  H    0.157990
    25  C   -0.297459
    26  C   -0.299703
    27  C   -0.482731
    28  H    0.146608
    29  H    0.151481
    30  H    0.145716
    31  H    0.150185
    32  H    0.183277
    33  H    0.146508
    34  H    0.158082
 Sum of Mulliken charges =  -0.00000

 Dipole moment (field-independent basis, Debye):
    X=             -4.9242    Y=              2.5310    Z=              0.5161  Tot=              5.5606
 Quadrupole moment (field-independent basis, Debye-Ang):
   XX=            -64.1049   YY=            -92.1313   ZZ=            -94.6077
   XY=             -6.8585   XZ=             -0.0677   YZ=              1.3577

 Normal termination of Gaussian 16 at Thu May  6 20:56:35 2021.
