 Gaussian 16, Revision A.03,
 Gaussian 16:  EM64L-G16RevA.03 25-Dec-2016

 -------------
 #p 6-31g* mp2
 -------------

 ------------------------------------------------------
 Input file generated by CHIRIPA (05-May-2021 14:51:09)
 ------------------------------------------------------
 Symbolic Z-matrix:
 Charge =  0 Multiplicity = 1

                         Standard orientation:
 ---------------------------------------------------------------------
 Center     Atomic      Atomic             Coordinates (Angstroms)
 Number     Number       Type             X           Y           Z
 ---------------------------------------------------------------------
      1          6           0        2.476591    0.889017    0.088509
      2          6           0        2.640783    2.390657   -0.148352
      3          6           0        1.577787    3.222179    0.570262
      4          1           0        1.477549    0.578462   -0.246777
      5          1           0        2.520478    0.688191    1.167925
      6          1           0        2.597984    2.588424   -1.227088
      7          1           0        3.639620    2.697637    0.187361
      8          1           0        1.622979    3.054188    1.651159
      9          1           0        0.575424    2.944354    0.228673
     10          1           0        1.713990    4.292616    0.387307
     11          6           0        3.531873    0.044465   -0.623418
     12          6           0        3.367680   -1.457175   -0.386557
     13          6           0        4.430676   -2.288696   -1.105170
     14          1           0        3.487986    0.245291   -1.702833
     15          1           0        4.530914    0.355020   -0.288131
     16          1           0        2.368843   -1.764155   -0.722269
     17          1           0        3.410479   -1.654942    0.692180
     18          1           0        5.433039   -2.010872   -0.763581
     19          1           0        4.385485   -2.120705   -2.186067
     20          1           0        4.294473   -3.359134   -0.922215
     21          6           0       -2.677585   -0.574557    0.949443
     22          6           0       -1.231274   -1.062349    0.858729
     23          6           0       -0.591407   -1.273427    2.231249
     24          1           0       -2.705857    0.365520    1.517248
     25          1           0       -3.267791   -1.303411    1.522002
     26          1           0       -0.644276   -0.333472    0.285329
     27          1           0       -1.206418   -2.001274    0.290910
     28          1           0       -1.152152   -2.016420    2.807554
     29          1           0       -0.586815   -0.339141    2.801942
     30          1           0        0.442262   -1.622127    2.142959
     31          6           0       -3.330879   -0.358925   -0.414536
     32          6           0       -4.777190    0.128866   -0.323820
     33          6           0       -5.417056    0.339944   -1.696340
     34          1           0       -2.740672    0.369929   -0.987094
     35          1           0       -3.302607   -1.299002   -0.982340
     36          1           0       -4.802045    1.067791    0.243999
     37          1           0       -5.364188   -0.600011    0.249579
     38          1           0       -5.421648   -0.594341   -2.267033
     39          1           0       -4.856312    1.082938   -2.272646
     40          1           0       -6.450726    0.688645   -1.608050
 ---------------------------------------------------------------------

 SCF Done:  E(RHF) =  -470.733301949     A.U. after   11 cycles
 E2 =    -0.1583467485D+01 EUMP2 =    -0.47231676943347D+03

 The electronic state is 1-A.
 Alpha  occ. eigenvalues --  -11.21627 -11.21618 -11.21602 -11.21554 -11.21411
 Alpha  occ. eigenvalues --  -11.21400 -11.21348 -11.21335 -11.21120 -11.21083
 Alpha  occ. eigenvalues --  -11.21075 -11.21008  -1.08462  -1.08406  -1.03554
 Alpha  occ. eigenvalues --   -1.03507  -0.96008  -0.95950  -0.87019  -0.86973
 Alpha  occ. eigenvalues --   -0.79631  -0.79567  -0.78350  -0.78152  -0.65157
 Alpha  occ. eigenvalues --   -0.64984  -0.60988  -0.60878  -0.59373  -0.59324
 Alpha  occ. eigenvalues --   -0.57662  -0.57517  -0.55309  -0.55230  -0.52716
 Alpha  occ. eigenvalues --   -0.52632  -0.52426  -0.52379  -0.49987  -0.49871
 Alpha  occ. eigenvalues --   -0.48011  -0.47851  -0.46812  -0.46566  -0.46031
 Alpha  occ. eigenvalues --   -0.45754  -0.45739  -0.45271  -0.43804  -0.43757
 Alpha virt. eigenvalues --    0.20775   0.23011   0.23916   0.24115   0.25220
 Alpha virt. eigenvalues --    0.26292   0.26857   0.27872   0.28314   0.29531
 Alpha virt. eigenvalues --    0.30563   0.31151   0.31690   0.31855   0.32271

 Mulliken charges:
               1
     1  C   -0.306453
     2  C   -0.299220
     3  C   -0.475814
     4  H    0.157357
     5  H    0.150657
     6  H    0.151769
     7  H    0.152131
     8  H    0.155410
     9  H    0.154119
    10  H    0.160537
    11  C   -0.297710
    12  C   -0.301282
    13  C   -0.475732
    14  H    0.149403
    15  H    0.149677
    16  H    0.153432
    17  H    0.151951
    18  H    0.155246
    19  H    0.155297
    20  H    0.160317
    21  C   -0.297819
    22  C   -0.305899
    23  C   -0.476533
    24  H    0.149822
    25  H    0.149492
    26  H    0.157425
    27  H    0.151289
    28  H    0.154526
    29  H    0.155024
    30  H    0.162276
    31  C   -0.298148
    32  C   -0.299639
    33  C   -0.475707
    34  H    0.148603
    35  H    0.149576
    36  H    0.152073
    37  H    0.152035
    38  H    0.155131
    39  H    0.155067
    40  H    0.160314
 Sum of Mulliken charges =  -0.00000

 Dipole moment (field-independent basis, Debye):
    X=              0.0246    Y=              0.0022    Z=              0.0002  Tot=              0.0247
 Quadrupole moment (field-independent basis, Debye-Ang):
   XX=            -85.1645   YY=            -84.4360   ZZ=            -85.1680
   XY=              0.9883   XZ=              0.2752   YZ=             -0.0805

 Normal termination of Gaussian 16 at Wed May  5 18:10:05 2021.
