 Gaussian 16, Revision A.03,
 Gaussian 16:  EM64L-G16RevA.03 25-Dec-2016

 -------------
 #p 6-31g* mp2
 -------------

 ------------------------------------------------------
 Input file generated by CHIRIPA (05-May-2021 14:51:09)
 ------------------------------------------------------
 Symbolic Z-matrix:
 Charge =  0 Multiplicity = 1

                         Standard orientation:
 ---------------------------------------------------------------------
 Center     Atomic      Atomic             Coordinates (Angstroms)
 Number     Number       Type             X           Y           Z
 ---------------------------------------------------------------------
      1          6           0        3.065421    0.033859    0.731936
      2          6           0        1.651750   -0.457187    0.418257
      3          6           0        0.630832   -0.033723    1.474760
      4          1           0        3.370997   -0.351414    1.714348
      5          1           0        3.055469    1.129472    0.815160
      6          1           0        1.664634   -1.551444    0.334281
      7          1           0        1.349577   -0.070858   -0.563607
      8          1           0        0.588532    1.057387    1.554068
      9          1           0        0.905379   -0.431611    2.457058
     10          1           0       -0.372943   -0.395309    1.230728
     11          6           0        4.097308   -0.381555   -0.315140
     12          6           0        5.510979    0.109491   -0.001461
     13          6           0        6.531897   -0.313973   -1.057964
     14          1           0        4.107261   -1.477168   -0.398364
     15          1           0        3.791732    0.003718   -1.297552
     16          1           0        5.813152   -0.276838    0.980403
     17          1           0        5.498095    1.203748    0.082515
     18          1           0        6.257350    0.083915   -2.040262
     19          1           0        6.574197   -1.405083   -1.137272
     20          1           0        7.535672    0.047613   -0.813932
     21          6           0       -3.147004    0.746246    0.050684
     22          6           0       -3.474194    2.094559   -0.591955
     23          6           0       -2.596864    3.229773   -0.063394
     24          1           0       -3.266854    0.827586    1.139704
     25          1           0       -2.089623    0.508531   -0.130514
     26          1           0       -4.530994    2.329008   -0.410784
     27          1           0       -3.353736    2.009947   -1.679588
     28          1           0       -1.539664    3.022151   -0.257876
     29          1           0       -2.723611    3.343025    1.018137
     30          1           0       -2.847675    4.184460   -0.536181
     31          6           0       -4.015725   -0.398550   -0.467480
     32          6           0       -3.688535   -1.746863    0.175158
     33          6           0       -4.565865   -2.882078   -0.353402
     34          1           0       -5.073106   -0.160835   -0.286282
     35          1           0       -3.895875   -0.479890   -1.556500
     36          1           0       -3.808993   -1.662250    1.262792
     37          1           0       -2.631735   -1.981313   -0.006012
     38          1           0       -4.439118   -2.995329   -1.434933
     39          1           0       -5.623065   -2.674454   -0.158920
     40          1           0       -4.315054   -3.836764    0.119385
 ---------------------------------------------------------------------

 SCF Done:  E(RHF) =  -470.733082099     A.U. after   11 cycles
 E2 =    -0.1582970077D+01 EUMP2 =    -0.47231605217591D+03

 The electronic state is 1-A.
 Alpha  occ. eigenvalues --  -11.21626 -11.21609 -11.21602 -11.21592 -11.21406
 Alpha  occ. eigenvalues --  -11.21389 -11.21346 -11.21315 -11.21085 -11.21073
 Alpha  occ. eigenvalues --  -11.21067 -11.20987  -1.08446  -1.08415  -1.03538
 Alpha  occ. eigenvalues --   -1.03517  -0.96003  -0.95946  -0.87020  -0.86962
 Alpha  occ. eigenvalues --   -0.79622  -0.79568  -0.78262  -0.78228  -0.65100
 Alpha  occ. eigenvalues --   -0.65033  -0.60969  -0.60883  -0.59372  -0.59336
 Alpha  occ. eigenvalues --   -0.57702  -0.57480  -0.55282  -0.55237  -0.52786
 Alpha  occ. eigenvalues --   -0.52631  -0.52445  -0.52294  -0.49927  -0.49904
 Alpha  occ. eigenvalues --   -0.47918  -0.47911  -0.46651  -0.46605  -0.45787
 Alpha  occ. eigenvalues --   -0.45771  -0.45707  -0.45681  -0.43801  -0.43687
 Alpha virt. eigenvalues --    0.21176   0.23131   0.23828   0.24018   0.26275
 Alpha virt. eigenvalues --    0.26542   0.26824   0.27280   0.27816   0.29469
 Alpha virt. eigenvalues --    0.30698   0.31431   0.31673   0.31892   0.32080

 Mulliken charges:
               1
     1  C   -0.298112
     2  C   -0.300569
     3  C   -0.482161
     4  H    0.149884
     5  H    0.149598
     6  H    0.151769
     7  H    0.150932
     8  H    0.155462
     9  H    0.154864
    10  H    0.167434
    11  C   -0.298249
    12  C   -0.299664
    13  C   -0.475703
    14  H    0.149482
    15  H    0.149457
    16  H    0.151984
    17  H    0.151972
    18  H    0.155136
    19  H    0.155166
    20  H    0.160279
    21  C   -0.303873
    22  C   -0.299301
    23  C   -0.475959
    24  H    0.149835
    25  H    0.156457
    26  H    0.151842
    27  H    0.151599
    28  H    0.155190
    29  H    0.155472
    30  H    0.160077
    31  C   -0.297961
    32  C   -0.301498
    33  C   -0.475643
    34  H    0.149517
    35  H    0.149405
    36  H    0.152243
    37  H    0.152642
    38  H    0.155266
    39  H    0.155391
    40  H    0.160337
 Sum of Mulliken charges =  -0.00000

 Dipole moment (field-independent basis, Debye):
    X=             -0.0202    Y=             -0.0024    Z=              0.0092  Tot=              0.0223
 Quadrupole moment (field-independent basis, Debye-Ang):
   XX=            -85.3393   YY=            -84.9274   ZZ=            -84.5064
   XY=             -0.5843   XZ=             -0.0128   YZ=             -0.7292

 Normal termination of Gaussian 16 at Wed May  5 16:37:47 2021.
