 Gaussian 16, Revision A.03,
 Gaussian 16:  EM64L-G16RevA.03 25-Dec-2016

 -------------
 #p 6-31g* mp2
 -------------

 ------------------------------------------------------
 Input file generated by CHIRIPA (05-May-2021 14:55:22)
 ------------------------------------------------------
 Symbolic Z-matrix:
 Charge =  0 Multiplicity = 1

                         Standard orientation:
 ---------------------------------------------------------------------
 Center     Atomic      Atomic             Coordinates (Angstroms)
 Number     Number       Type             X           Y           Z
 ---------------------------------------------------------------------
      1          6           0       -3.965108    0.221041   -1.472994
      2          6           0       -3.534584    1.305352   -0.701347
      3          6           0       -2.569413    1.129254    0.294637
      4          6           0       -2.053748   -0.150613    0.492932
      5          6           0       -2.462333   -1.250764   -0.259407
      6          6           0       -3.428555   -1.051313   -1.249954
      7          1           0       -4.715284    0.366908   -2.244586
      8          1           0       -3.949528    2.294606   -0.872349
      9          1           0       -2.218153    1.951198    0.906553
     10          1           0       -2.030260   -2.225023   -0.065629
     11          1           0       -3.761023   -1.895237   -1.847702
     12          7           0       -1.031409   -0.349401    1.544458
     13          8           0       -0.592672   -1.486994    1.699472
     14          8           0       -0.688194    0.636145    2.193718
     15          6           0        3.166184    0.835417   -0.302838
     16          6           0        2.185209    1.997576   -0.461144
     17          6           0        2.843700    3.360551   -0.245544
     18          1           0        3.611938    0.874269    0.700526
     19          1           0        3.991840    0.961816   -1.016777
     20          1           0        1.360936    1.868290    0.251930
     21          1           0        1.741596    1.955841   -1.464179
     22          1           0        3.653751    3.515251   -0.965604
     23          1           0        3.270928    3.427203    0.760257
     24          1           0        2.124463    4.177045   -0.363427
     25          6           0        2.522755   -0.533721   -0.515411
     26          6           0        3.503730   -1.695880   -0.357105
     27          6           0        2.845239   -3.058854   -0.572704
     28          1           0        1.697099   -0.660119    0.198529
     29          1           0        2.077001   -0.572572   -1.518775
     30          1           0        3.947343   -1.654145    0.645932
     31          1           0        4.328004   -1.566593   -1.070178
     32          1           0        2.418011   -3.125506   -1.578505
     33          1           0        2.035188   -3.213555    0.147355
     34          1           0        3.564476   -3.875348   -0.454821
 ---------------------------------------------------------------------

 SCF Done:  E(RHF) =  -669.536959734     A.U. after   15 cycles
 E2 =    -0.2092712782D+01 EUMP2 =    -0.67162967251689D+03

 The electronic state is 1-A.
 Alpha  occ. eigenvalues --  -20.61111 -20.61105 -15.86084 -11.31314 -11.27871
 Alpha  occ. eigenvalues --  -11.27867 -11.27602 -11.26862 -11.26852 -11.20903
 Alpha  occ. eigenvalues --  -11.20806 -11.20614 -11.20532 -11.20490 -11.20287
 Alpha  occ. eigenvalues --   -1.60142  -1.39702  -1.19478  -1.08903  -1.07651
 Alpha  occ. eigenvalues --   -1.04862  -1.02800  -0.95760  -0.95261  -0.86283
 Alpha  occ. eigenvalues --   -0.86267  -0.82601  -0.78880  -0.77676  -0.77482
 Alpha  occ. eigenvalues --   -0.72322  -0.71446  -0.70593  -0.65139  -0.64869
 Alpha  occ. eigenvalues --   -0.64241  -0.62212  -0.60181  -0.58644  -0.56886
 Alpha  occ. eigenvalues --   -0.55378  -0.54529  -0.53194  -0.52956  -0.51988
 Alpha  occ. eigenvalues --   -0.51704  -0.49211  -0.49101  -0.49066  -0.47236
 Alpha  occ. eigenvalues --   -0.46015  -0.45081  -0.44999  -0.44735  -0.43049
 Alpha  occ. eigenvalues --   -0.37450  -0.36454
 Alpha virt. eigenvalues --    0.04801   0.11181   0.16258   0.21256   0.23680
 Alpha virt. eigenvalues --    0.24963   0.26933   0.27254   0.27802   0.28438
 Alpha virt. eigenvalues --    0.28847   0.31111   0.31418   0.32296   0.32506

 Mulliken charges:
               1
     1  C   -0.170253
     2  C   -0.218665
     3  C   -0.170257
     4  C    0.158767
     5  C   -0.170126
     6  C   -0.218758
     7  H    0.226128
     8  H    0.223971
     9  H    0.275947
    10  H    0.276068
    11  H    0.224014
    12  N    0.487536
    13  O   -0.457966
    14  O   -0.457978
    15  C   -0.296243
    16  C   -0.306310
    17  C   -0.474456
    18  H    0.153630
    19  H    0.145199
    20  H    0.161406
    21  H    0.145291
    22  H    0.152512
    23  H    0.157936
    24  H    0.155428
    25  C   -0.307466
    26  C   -0.297206
    27  C   -0.479583
    28  H    0.164987
    29  H    0.141869
    30  H    0.154972
    31  H    0.147359
    32  H    0.148199
    33  H    0.167110
    34  H    0.156940
 Sum of Mulliken charges =  -0.00000

 Dipole moment (field-independent basis, Debye):
    X=             -3.8307    Y=              0.6390    Z=             -3.4796  Tot=              5.2144
 Quadrupole moment (field-independent basis, Debye-Ang):
   XX=            -81.0020   YY=            -91.7798   ZZ=            -98.0439
   XY=             -1.5525   XZ=              6.3954   YZ=              1.9550

 Normal termination of Gaussian 16 at Thu May  6 07:49:21 2021.
