 Gaussian 16, Revision A.03,
 Gaussian 16:  EM64L-G16RevA.03 25-Dec-2016

 -------------
 #p 6-31g* mp2
 -------------

 ------------------------------------------------------
 Input file generated by CHIRIPA (05-May-2021 14:51:13)
 ------------------------------------------------------
 Symbolic Z-matrix:
 Charge =  0 Multiplicity = 1

                         Standard orientation:
 ---------------------------------------------------------------------
 Center     Atomic      Atomic             Coordinates (Angstroms)
 Number     Number       Type             X           Y           Z
 ---------------------------------------------------------------------
      1          6           0       -2.904639   -0.899329   -0.271755
      2          6           0       -1.427974   -0.754463    0.097650
      3          6           0       -0.583028   -1.940706   -0.367847
      4          1           0       -3.297024   -1.826119    0.168744
      5          1           0       -2.993764   -1.009003   -1.361445
      6          1           0       -1.341765   -0.643707    1.186189
      7          1           0       -1.039108    0.172187   -0.343620
      8          1           0       -0.639312   -2.050459   -1.455683
      9          1           0       -0.943688   -2.870989    0.082818
     10          1           0        0.469154   -1.816410   -0.093392
     11          6           0       -3.762250    0.278755    0.186884
     12          6           0       -5.238915    0.133888   -0.182521
     13          6           0       -6.083861    1.320132    0.282975
     14          1           0       -3.673124    0.388428    1.276573
     15          1           0       -3.369864    1.205544   -0.253615
     16          1           0       -5.627781   -0.792762    0.258749
     17          1           0       -5.325124    0.023133   -1.271060
     18          1           0       -5.723200    2.250414   -0.167689
     19          1           0       -6.027577    1.429884    1.370811
     20          1           0       -7.136042    1.195836    0.008521
     21          6           0        3.291754    0.994819    0.378754
     22          6           0        3.354077    2.160451   -0.608871
     23          6           0        3.269506    3.523311    0.079064
     24          1           0        2.358019    1.059468    0.953996
     25          1           0        4.112401    1.092617    1.102888
     26          1           0        2.534384    2.059730   -1.331765
     27          1           0        4.287683    2.092911   -1.181962
     28          1           0        4.095013    3.649354    0.787057
     29          1           0        2.331752    3.615983    0.636404
     30          1           0        3.315911    4.342314   -0.645462
     31          6           0        3.375135   -0.374245   -0.293882
     32          6           0        3.312811   -1.539876    0.693742
     33          6           0        3.397382   -2.902736    0.005807
     34          1           0        2.554488   -0.472042   -1.018017
     35          1           0        4.308870   -0.438894   -0.869125
     36          1           0        2.379205   -1.472337    1.266834
     37          1           0        4.132505   -1.439155    1.416636
     38          1           0        4.335136   -2.995409   -0.551533
     39          1           0        2.571875   -3.028779   -0.702186
     40          1           0        3.350978   -3.721740    0.730334
 ---------------------------------------------------------------------

 SCF Done:  E(RHF) =  -470.732661804     A.U. after   11 cycles
 E2 =    -0.1583685495D+01 EUMP2 =    -0.47231634729897D+03

 The electronic state is 1-A.
 Alpha  occ. eigenvalues --  -11.21664 -11.21625 -11.21605 -11.21603 -11.21440
 Alpha  occ. eigenvalues --  -11.21402 -11.21380 -11.21342 -11.21089 -11.21071
 Alpha  occ. eigenvalues --  -11.21070 -11.21031  -1.08482  -1.08425  -1.03608
 Alpha  occ. eigenvalues --   -1.03499  -0.96037  -0.95956  -0.87038  -0.86991
 Alpha  occ. eigenvalues --   -0.79635  -0.79594  -0.78283  -0.78244  -0.65162
 Alpha  occ. eigenvalues --   -0.65088  -0.61138  -0.60963  -0.59354  -0.59242
 Alpha  occ. eigenvalues --   -0.57590  -0.57578  -0.55331  -0.55249  -0.52687
 Alpha  occ. eigenvalues --   -0.52659  -0.52435  -0.52376  -0.49959  -0.49917
 Alpha  occ. eigenvalues --   -0.48012  -0.47831  -0.46676  -0.46624  -0.45822
 Alpha  occ. eigenvalues --   -0.45773  -0.45746  -0.45715  -0.43808  -0.43758
 Alpha virt. eigenvalues --    0.20519   0.23120   0.23795   0.25020   0.26373
 Alpha virt. eigenvalues --    0.26554   0.26985   0.27482   0.28029   0.29229
 Alpha virt. eigenvalues --    0.30883   0.31261   0.31511   0.31644   0.32150

 Mulliken charges:
               1
     1  C   -0.298465
     2  C   -0.299680
     3  C   -0.487051
     4  H    0.149921
     5  H    0.149677
     6  H    0.151684
     7  H    0.151364
     8  H    0.154607
     9  H    0.155582
    10  H    0.173512
    11  C   -0.298274
    12  C   -0.299668
    13  C   -0.475730
    14  H    0.149545
    15  H    0.149580
    16  H    0.152022
    17  H    0.151984
    18  H    0.155208
    19  H    0.155219
    20  H    0.160351
    21  C   -0.298498
    22  C   -0.299578
    23  C   -0.475768
    24  H    0.150241
    25  H    0.149559
    26  H    0.151703
    27  H    0.151946
    28  H    0.155209
    29  H    0.155334
    30  H    0.160178
    31  C   -0.300693
    32  C   -0.304769
    33  C   -0.478265
    34  H    0.151366
    35  H    0.150106
    36  H    0.152493
    37  H    0.153849
    38  H    0.155328
    39  H    0.158489
    40  H    0.160381
 Sum of Mulliken charges =  -0.00000

 Dipole moment (field-independent basis, Debye):
    X=              0.0038    Y=             -0.0109    Z=             -0.0000  Tot=              0.0115
 Quadrupole moment (field-independent basis, Debye-Ang):
   XX=            -84.2418   YY=            -86.2779   ZZ=            -84.1837
   XY=              0.7235   XZ=              0.1253   YZ=             -1.0097

 Normal termination of Gaussian 16 at Thu May  6 03:56:53 2021.
