 Gaussian 16, Revision A.03,
 Gaussian 16:  EM64L-G16RevA.03 25-Dec-2016

 -------------
 #p 6-31g* mp2
 -------------

 ------------------------------------------------------
 Input file generated by CHIRIPA (05-May-2021 14:57:22)
 ------------------------------------------------------
 Symbolic Z-matrix:
 Charge =  0 Multiplicity = 1

                         Standard orientation:
 ---------------------------------------------------------------------
 Center     Atomic      Atomic             Coordinates (Angstroms)
 Number     Number       Type             X           Y           Z
 ---------------------------------------------------------------------
      1          6           0       -4.376641    1.588772    0.827082
      2          6           0       -3.090413    1.970849    0.431917
      3          6           0       -2.206342    1.033278   -0.110234
      4          6           0       -2.643465   -0.283705   -0.243535
      5          6           0       -3.918676   -0.695240    0.140868
      6          6           0       -4.785946    0.259291    0.680555
      7          1           0       -5.056882    2.323688    1.247281
      8          1           0       -2.769829    3.002638    0.544538
      9          1           0       -1.205037    1.301837   -0.424374
     10          1           0       -4.209673   -1.731196    0.016236
     11          1           0       -5.784266   -0.040289    0.986585
     12          7           0       -1.716432   -1.285247   -0.816182
     13          8           0       -2.125665   -2.439247   -0.923180
     14          8           0       -0.598145   -0.897290   -1.147181
     15          6           0        2.895203    2.412180   -0.897649
     16          6           0        2.978461    2.272621    0.491636
     17          6           0        2.924730    1.006727    1.082543
     18          6           0        2.786685   -0.103092    0.250357
     19          6           0        2.701115    0.003364   -1.136955
     20          6           0        2.757040    1.279103   -1.706085
     21          1           0        2.937794    3.399381   -1.348221
     22          1           0        3.085796    3.150818    1.121950
     23          1           0        2.986874    0.869929    2.155317
     24          1           0        2.594497   -0.890673   -1.739241
     25          1           0        2.692139    1.384473   -2.785312
     26          7           0        2.728641   -1.448449    0.864397
     27          8           0        2.606704   -2.410492    0.109253
     28          8           0        2.806184   -1.515424    2.089198
 ---------------------------------------------------------------------

 SCF Done:  E(RHF) =  -868.337578078     A.U. after   16 cycles
 E2 =    -0.2600758764D+01 EUMP2 =    -0.87093833684217D+03

 The electronic state is 1-A.
 Alpha  occ. eigenvalues --  -20.60771 -20.60713 -20.59884 -20.59794 -15.85802
 Alpha  occ. eigenvalues --  -15.84898 -11.31203 -11.30388 -11.27796 -11.27761
 Alpha  occ. eigenvalues --  -11.27543 -11.27123 -11.26932 -11.26922 -11.26834
 Alpha  occ. eigenvalues --  -11.26789 -11.26190 -11.26048  -1.59805  -1.58908
 Alpha  occ. eigenvalues --   -1.39366  -1.38456  -1.19383  -1.18636  -1.08772
 Alpha  occ. eigenvalues --   -1.08025  -1.04796  -1.04064  -0.95602  -0.94821
 Alpha  occ. eigenvalues --   -0.86193  -0.85461  -0.82441  -0.81654  -0.77478
 Alpha  occ. eigenvalues --   -0.76644  -0.72050  -0.71134  -0.71130  -0.70497
 Alpha  occ. eigenvalues --   -0.70200  -0.69780  -0.65044  -0.64806  -0.64300
 Alpha  occ. eigenvalues --   -0.64093  -0.62145  -0.61395  -0.55300  -0.54634
 Alpha  occ. eigenvalues --   -0.53119  -0.52899  -0.52390  -0.52168  -0.48776
 Alpha  occ. eigenvalues --   -0.48754  -0.47912  -0.47852  -0.44782  -0.43817
 Alpha  occ. eigenvalues --   -0.37368  -0.36670  -0.36402  -0.35640
 Alpha virt. eigenvalues --    0.05057   0.05908   0.11252   0.11998   0.16534
 Alpha virt. eigenvalues --    0.17326   0.21345   0.21991   0.27231   0.27900
 Alpha virt. eigenvalues --    0.28221   0.28936   0.30838   0.31482   0.32399

 Mulliken charges:
               1
     1  C   -0.170709
     2  C   -0.218552
     3  C   -0.171977
     4  C    0.158827
     5  C   -0.170033
     6  C   -0.218464
     7  H    0.225193
     8  H    0.221048
     9  H    0.274767
    10  H    0.276994
    11  H    0.223961
    12  N    0.492497
    13  O   -0.454567
    14  O   -0.468800
    15  C   -0.175183
    16  C   -0.222866
    17  C   -0.173779
    18  C    0.158427
    19  C   -0.151029
    20  C   -0.222786
    21  H    0.220747
    22  H    0.218046
    23  H    0.272580
    24  H    0.283866
    25  H    0.222288
    26  N    0.488408
    27  O   -0.450865
    28  O   -0.468037
 Sum of Mulliken charges =  -0.00000

 Dipole moment (field-independent basis, Debye):
    X=             -3.2344    Y=              7.8465    Z=             -0.3292  Tot=              8.4934
 Quadrupole moment (field-independent basis, Debye-Ang):
   XX=            -85.3146   YY=           -105.6535   ZZ=           -103.8664
   XY=              7.2599   XZ=            -11.1823   YZ=              1.9587

 Normal termination of Gaussian 16 at Fri May  7 04:49:40 2021.
