 Gaussian 16, Revision A.03,
 Gaussian 16:  EM64L-G16RevA.03 25-Dec-2016

 -------------
 #p 6-31g* mp2
 -------------

 ------------------------------------------------------
 Input file generated by CHIRIPA (05-May-2021 14:51:09)
 ------------------------------------------------------
 Symbolic Z-matrix:
 Charge =  0 Multiplicity = 1

                         Standard orientation:
 ---------------------------------------------------------------------
 Center     Atomic      Atomic             Coordinates (Angstroms)
 Number     Number       Type             X           Y           Z
 ---------------------------------------------------------------------
      1          6           0       -4.414205   -0.359036    0.200660
      2          6           0       -4.088891   -1.765829   -0.302422
      3          6           0       -5.102545   -2.810274    0.166017
      4          1           0       -4.452025   -0.368764    1.298576
      5          1           0       -5.418653   -0.076998   -0.144208
      6          1           0       -3.084802   -2.044585    0.042130
      7          1           0       -4.051652   -1.752709   -1.399262
      8          1           0       -6.106916   -2.559165   -0.190049
      9          1           0       -5.134573   -2.852699    1.259532
     10          1           0       -4.850824   -3.808692   -0.205007
     11          6           0       -3.409881    0.696169   -0.259342
     12          6           0       -3.735194    2.102962    0.243740
     13          6           0       -2.721541    3.147407   -0.224698
     14          1           0       -2.405433    0.414131    0.085526
     15          1           0       -3.372061    0.705897   -1.357258
     16          1           0       -3.772433    2.089842    1.340580
     17          1           0       -4.739284    2.381718   -0.100812
     18          1           0       -2.689513    3.189832   -1.318214
     19          1           0       -1.717169    2.896298    0.131368
     20          1           0       -2.973261    4.145825    0.146325
     21          6           0        4.563652   -0.381535   -0.307528
     22          6           0        5.812791    0.043251    0.465256
     23          6           0        7.108464   -0.390017   -0.221261
     24          1           0        4.568770   -1.473447   -0.428548
     25          1           0        4.604090    0.045273   -1.319256
     26          1           0        5.769340   -0.383093    1.475681
     27          1           0        5.804603    1.134260    0.584617
     28          1           0        7.178509    0.046779   -1.222711
     29          1           0        7.143046   -1.479196   -0.326586
     30          1           0        7.988878   -0.076110    0.348119
     31          6           0        3.260433    0.044403    0.366210
     32          6           0        2.011295   -0.380384   -0.406575
     33          6           0        0.715622    0.052883    0.279943
     34          1           0        3.219996   -0.382406    1.377938
     35          1           0        3.255316    1.136315    0.487231
     36          1           0        2.019483   -1.471394   -0.525936
     37          1           0        2.054746    0.045960   -1.416999
     38          1           0        0.681040    1.142062    0.385268
     39          1           0        0.645576   -0.383912    1.281394
     40          1           0       -0.164793   -0.261024   -0.289437
 ---------------------------------------------------------------------

 SCF Done:  E(RHF) =  -470.733174004     A.U. after   11 cycles
 E2 =    -0.1582834351D+01 EUMP2 =    -0.47231600835464D+03

 The electronic state is 1-A.
 Alpha  occ. eigenvalues --  -11.21632 -11.21613 -11.21580 -11.21542 -11.21424
 Alpha  occ. eigenvalues --  -11.21364 -11.21340 -11.21257 -11.21116 -11.21079
 Alpha  occ. eigenvalues --  -11.21053 -11.21017  -1.08453  -1.08377  -1.03558
 Alpha  occ. eigenvalues --   -1.03483  -0.96015  -0.95931  -0.87041  -0.86945
 Alpha  occ. eigenvalues --   -0.79651  -0.79530  -0.78275  -0.78179  -0.65082
 Alpha  occ. eigenvalues --   -0.65016  -0.60974  -0.60866  -0.59415  -0.59281
 Alpha  occ. eigenvalues --   -0.57674  -0.57497  -0.55321  -0.55201  -0.52796
 Alpha  occ. eigenvalues --   -0.52620  -0.52464  -0.52288  -0.49979  -0.49846
 Alpha  occ. eigenvalues --   -0.47938  -0.47866  -0.46684  -0.46549  -0.45821
 Alpha  occ. eigenvalues --   -0.45746  -0.45717  -0.45657  -0.43756  -0.43687
 Alpha virt. eigenvalues --    0.21659   0.23008   0.23747   0.24336   0.25820
 Alpha virt. eigenvalues --    0.26355   0.26945   0.27164   0.27809   0.29146
 Alpha virt. eigenvalues --    0.30132   0.31559   0.31672   0.31866   0.32357

 Mulliken charges:
               1
     1  C   -0.297505
     2  C   -0.300312
     3  C   -0.475603
     4  H    0.149476
     5  H    0.149256
     6  H    0.151967
     7  H    0.151675
     8  H    0.155224
     9  H    0.155183
    10  H    0.160080
    11  C   -0.307735
    12  C   -0.298774
    13  C   -0.477738
    14  H    0.160827
    15  H    0.148467
    16  H    0.151737
    17  H    0.151534
    18  H    0.154803
    19  H    0.157283
    20  H    0.159832
    21  C   -0.298294
    22  C   -0.299636
    23  C   -0.475715
    24  H    0.149672
    25  H    0.149652
    26  H    0.151904
    27  H    0.152004
    28  H    0.155235
    29  H    0.155186
    30  H    0.160294
    31  C   -0.298717
    32  C   -0.299656
    33  C   -0.481877
    34  H    0.149432
    35  H    0.149754
    36  H    0.152093
    37  H    0.152490
    38  H    0.156343
    39  H    0.154705
    40  H    0.165453
 Sum of Mulliken charges =  -0.00000

 Dipole moment (field-independent basis, Debye):
    X=              0.0350    Y=             -0.0087    Z=              0.0018  Tot=              0.0361
 Quadrupole moment (field-independent basis, Debye-Ang):
   XX=            -86.0875   YY=            -84.8559   ZZ=            -84.0243
   XY=             -0.3579   XZ=              0.9662   YZ=             -0.4730

 Normal termination of Gaussian 16 at Wed May  5 22:58:33 2021.
