 Gaussian 16, Revision A.03,
 Gaussian 16:  EM64L-G16RevA.03 25-Dec-2016

 -------------
 #p 6-31g* mp2
 -------------

 ------------------------------------------------------
 Input file generated by CHIRIPA (05-May-2021 14:57:27)
 ------------------------------------------------------
 Symbolic Z-matrix:
 Charge =  0 Multiplicity = 1

                         Standard orientation:
 ---------------------------------------------------------------------
 Center     Atomic      Atomic             Coordinates (Angstroms)
 Number     Number       Type             X           Y           Z
 ---------------------------------------------------------------------
      1          6           0        2.174200    0.776469    2.085152
      2          6           0        1.620665   -0.175418    1.222580
      3          6           0        2.341803   -0.636369    0.117125
      4          6           0        3.619546   -0.121658   -0.096736
      5          6           0        4.198383    0.827348    0.744469
      6          6           0        3.459027    1.273937    1.843769
      7          1           0        1.606927    1.128969    2.941505
      8          1           0        0.623069   -0.563522    1.407577
      9          1           0        1.937395   -1.372744   -0.566706
     10          1           0        5.195138    1.195642    0.534097
     11          1           0        3.891439    2.013242    2.511971
     12          7           0        4.392626   -0.602044   -1.263773
     13          8           0        5.516375   -0.132892   -1.430269
     14          8           0        3.860179   -1.438628   -1.989903
     15          6           0       -3.354906    2.380808   -1.033336
     16          6           0       -4.354517    1.507356   -1.474223
     17          6           0       -4.440081    0.209499   -0.961588
     18          6           0       -3.505400   -0.183576   -0.004950
     19          6           0       -2.497947    0.663373    0.454405
     20          6           0       -2.431440    1.956776   -0.072124
     21          1           0       -3.295840    3.387284   -1.436960
     22          1           0       -5.073044    1.833946   -2.220616
     23          1           0       -5.203784   -0.487251   -1.285182
     24          1           0       -1.795920    0.309162    1.199462
     25          1           0       -1.654064    2.632957    0.272132
     26          7           0       -3.585895   -1.555201    0.545108
     27          8           0       -2.750422   -1.877312    1.387049
     28          8           0       -4.482937   -2.282198    0.123887
 ---------------------------------------------------------------------

 SCF Done:  E(RHF) =  -868.337863613     A.U. after   16 cycles
 E2 =    -0.2599545517D+01 EUMP2 =    -0.87093740913027D+03

 The electronic state is 1-A.
 Alpha  occ. eigenvalues --  -20.61460 -20.61415 -20.60858 -20.60849 -15.86486
 Alpha  occ. eigenvalues --  -15.85911 -11.31814 -11.31330 -11.28459 -11.28305
 Alpha  occ. eigenvalues --  -11.28039 -11.27919 -11.27878 -11.27700 -11.27385
 Alpha  occ. eigenvalues --  -11.27307 -11.26956 -11.26918  -1.60505  -1.59931
 Alpha  occ. eigenvalues --   -1.40066  -1.39482  -1.19963  -1.19517  -1.09352
 Alpha  occ. eigenvalues --   -1.08913  -1.05367  -1.04917  -0.96205  -0.95732
 Alpha  occ. eigenvalues --   -0.86768  -0.86321  -0.83042  -0.82552  -0.78121
 Alpha  occ. eigenvalues --   -0.77578  -0.72704  -0.72127  -0.71823  -0.71256
 Alpha  occ. eigenvalues --   -0.71077  -0.70636  -0.65615  -0.65403  -0.65168
 Alpha  occ. eigenvalues --   -0.64901  -0.62768  -0.62204  -0.55840  -0.55446
 Alpha  occ. eigenvalues --   -0.53683  -0.53497  -0.53256  -0.52954  -0.49476
 Alpha  occ. eigenvalues --   -0.49442  -0.48892  -0.48877  -0.45478  -0.44874
 Alpha  occ. eigenvalues --   -0.37911  -0.37534  -0.36970  -0.36508
 Alpha virt. eigenvalues --    0.04414   0.04943   0.10647   0.11075   0.15953
 Alpha virt. eigenvalues --    0.16406   0.19320   0.21831   0.25037   0.27180
 Alpha virt. eigenvalues --    0.28080   0.28966   0.29863   0.31102   0.31894

 Mulliken charges:
               1
     1  C   -0.174068
     2  C   -0.228805
     3  C   -0.170841
     4  C    0.158512
     5  C   -0.171145
     6  C   -0.218774
     7  H    0.224118
     8  H    0.233644
     9  H    0.279570
    10  H    0.275918
    11  H    0.223302
    12  N    0.487880
    13  O   -0.460629
    14  O   -0.458729
    15  C   -0.170086
    16  C   -0.217679
    17  C   -0.169867
    18  C    0.159334
    19  C   -0.174119
    20  C   -0.217784
    21  H    0.228198
    22  H    0.226278
    23  H    0.277677
    24  H    0.268618
    25  H    0.223804
    26  N    0.488608
    27  O   -0.467527
    28  O   -0.455409
 Sum of Mulliken charges =  -0.00000

 Dipole moment (field-independent basis, Debye):
    X=             -2.5957    Y=              6.5307    Z=              1.9976  Tot=              7.3061
 Quadrupole moment (field-independent basis, Debye-Ang):
   XX=           -120.0423   YY=           -105.9157   ZZ=           -104.7999
   XY=             -7.4167   XZ=             26.2927   YZ=              1.0530

 Normal termination of Gaussian 16 at Thu May  6 05:12:37 2021.
