 Gaussian 16, Revision A.03,
 Gaussian 16:  EM64L-G16RevA.03 25-Dec-2016

 -------------
 #p 6-31g* mp2
 -------------

 ------------------------------------------------------
 Input file generated by CHIRIPA (05-May-2021 14:55:22)
 ------------------------------------------------------
 Symbolic Z-matrix:
 Charge =  0 Multiplicity = 1

                         Standard orientation:
 ---------------------------------------------------------------------
 Center     Atomic      Atomic             Coordinates (Angstroms)
 Number     Number       Type             X           Y           Z
 ---------------------------------------------------------------------
      1          6           0        0.477115   -1.799341    0.824072
      2          6           0        0.808255   -1.738095   -0.533542
      3          6           0        1.910368   -0.992583   -0.962617
      4          6           0        2.662830   -0.317631   -0.002652
      5          6           0        2.358375   -0.359170    1.357080
      6          6           0        1.251866   -1.110897    1.763394
      7          1           0       -0.380741   -2.380887    1.148547
      8          1           0        0.208371   -2.271735   -1.265260
      9          1           0        2.189198   -0.927976   -2.007364
     10          1           0        2.975317    0.183473    2.063012
     11          1           0        0.997054   -1.156660    2.818393
     12          7           0        3.831915    0.474899   -0.444846
     13          8           0        4.478838    1.060512    0.420709
     14          8           0        4.079185    0.495464   -1.648620
     15          6           0       -2.708317    1.102961    0.222740
     16          6           0       -2.983550    2.516930   -0.290021
     17          6           0       -2.068391    3.564505    0.344694
     18          1           0       -2.830397    1.085424    1.314405
     19          1           0       -1.659339    0.845115    0.021347
     20          1           0       -4.032064    2.771509   -0.088965
     21          1           0       -2.860987    2.531059   -1.380615
     22          1           0       -1.018445    3.337857    0.132922
     23          1           0       -2.196177    3.579673    1.431911
     24          1           0       -2.282316    4.568053   -0.036079
     25          6           0       -3.615269    0.044558   -0.402521
     26          6           0       -3.340036   -1.369411    0.110240
     27          6           0       -4.255194   -2.416985   -0.524475
     28          1           0       -4.664245    0.302405   -0.201128
     29          1           0       -3.493187    0.062096   -1.494186
     30          1           0       -3.462599   -1.383539    1.200834
     31          1           0       -2.291521   -1.623989   -0.090816
     32          1           0       -4.127408   -2.432155   -1.611694
     33          1           0       -5.305139   -2.190338   -0.312704
     34          1           0       -4.041270   -3.420533   -0.143703
 ---------------------------------------------------------------------

 SCF Done:  E(RHF) =  -669.535046800     A.U. after   15 cycles
 E2 =    -0.2092841484D+01 EUMP2 =    -0.67162788828332D+03

 The electronic state is 1-A.
 Alpha  occ. eigenvalues --  -20.60796 -20.60790 -15.85851 -11.31226 -11.27815
 Alpha  occ. eigenvalues --  -11.27800 -11.27518 -11.26827 -11.26792 -11.22525
 Alpha  occ. eigenvalues --  -11.22018 -11.21918 -11.21911 -11.21789 -11.21265
 Alpha  occ. eigenvalues --   -1.59872  -1.39425  -1.19411  -1.09022  -1.08789
 Alpha  occ. eigenvalues --   -1.04815  -1.04105  -0.96519  -0.95633  -0.87539
 Alpha  occ. eigenvalues --   -0.86212  -0.82466  -0.80223  -0.78792  -0.77506
 Alpha  occ. eigenvalues --   -0.72069  -0.71197  -0.70523  -0.65671  -0.65054
 Alpha  occ. eigenvalues --   -0.64806  -0.62168  -0.61491  -0.59935  -0.58137
 Alpha  occ. eigenvalues --   -0.55798  -0.55312  -0.53280  -0.53113  -0.52934
 Alpha  occ. eigenvalues --   -0.52901  -0.50463  -0.48829  -0.48823  -0.48497
 Alpha  occ. eigenvalues --   -0.47259  -0.46325  -0.46215  -0.44828  -0.44336
 Alpha  occ. eigenvalues --   -0.37320  -0.36415
 Alpha virt. eigenvalues --    0.05013   0.11122   0.16470   0.20396   0.22630
 Alpha virt. eigenvalues --    0.23887   0.25835   0.26325   0.27306   0.27516
 Alpha virt. eigenvalues --    0.28906   0.30128   0.30960   0.31526   0.32081

 Mulliken charges:
               1
     1  C   -0.168619
     2  C   -0.220318
     3  C   -0.171538
     4  C    0.157919
     5  C   -0.170742
     6  C   -0.219767
     7  H    0.229685
     8  H    0.223939
     9  H    0.275762
    10  H    0.275899
    11  H    0.223956
    12  N    0.488116
    13  O   -0.460214
    14  O   -0.460462
    15  C   -0.302206
    16  C   -0.300036
    17  C   -0.476183
    18  H    0.147374
    19  H    0.154606
    20  H    0.151979
    21  H    0.152946
    22  H    0.157866
    23  H    0.154182
    24  H    0.162176
    25  C   -0.297310
    26  C   -0.305670
    27  C   -0.475785
    28  H    0.151850
    29  H    0.150476
    30  H    0.150483
    31  H    0.146175
    32  H    0.156231
    33  H    0.159580
    34  H    0.157648
 Sum of Mulliken charges =  -0.00000

 Dipole moment (field-independent basis, Debye):
    X=             -4.1450    Y=             -2.7169    Z=              1.5607  Tot=              5.1959
 Quadrupole moment (field-independent basis, Debye-Ang):
   XX=           -117.0182   YY=            -94.0366   ZZ=            -89.8497
   XY=             -6.6076   XZ=              4.5829   YZ=              0.6481

 Normal termination of Gaussian 16 at Thu May  6 09:22:26 2021.
