 Gaussian 16, Revision A.03,
 Gaussian 16:  EM64L-G16RevA.03 25-Dec-2016

 -------------
 #p 6-31g* mp2
 -------------

 ------------------------------------------------------
 Input file generated by CHIRIPA (05-May-2021 14:51:12)
 ------------------------------------------------------
 Symbolic Z-matrix:
 Charge =  0 Multiplicity = 1

                         Standard orientation:
 ---------------------------------------------------------------------
 Center     Atomic      Atomic             Coordinates (Angstroms)
 Number     Number       Type             X           Y           Z
 ---------------------------------------------------------------------
      1          6           0        2.782252   -0.686270    0.529366
      2          6           0        1.903871    0.202983    1.410082
      3          6           0        0.600303   -0.479610    1.825502
      4          1           0        2.216982   -0.976654   -0.366788
      5          1           0        3.009909   -1.615390    1.070016
      6          1           0        1.679082    1.130745    0.868470
      7          1           0        2.471364    0.491441    2.304151
      8          1           0        0.807424   -1.395596    2.388237
      9          1           0        0.010641   -0.752660    0.944398
     10          1           0       -0.012278    0.173800    2.454516
     11          6           0        4.088988   -0.017798    0.105910
     12          6           0        4.967369   -0.907050   -0.774806
     13          6           0        6.270937   -0.224458   -1.190225
     14          1           0        3.861331    0.911323   -0.434740
     15          1           0        4.654258    0.272587    1.002064
     16          1           0        4.399876   -1.195508   -1.668875
     17          1           0        5.192158   -1.834812   -0.233194
     18          1           0        6.860599    0.048592   -0.309122
     19          1           0        6.063816    0.691529   -1.752961
     20          1           0        6.883518   -0.877867   -1.819240
     21          6           0       -4.095285    0.054397   -0.073330
     22          6           0       -4.427170   -1.293091   -0.715294
     23          6           0       -5.749827   -1.875781   -0.216451
     24          1           0       -4.056062   -0.066275    1.017928
     25          1           0       -4.910054    0.761953   -0.280478
     26          1           0       -3.611369   -1.997495   -0.508168
     27          1           0       -4.465417   -1.169237   -1.805162
     28          1           0       -6.578305   -1.194927   -0.437052
     29          1           0       -5.719403   -2.027891    0.867310
     30          1           0       -5.967499   -2.839046   -0.688256
     31          6           0       -2.775955    0.649670   -0.561946
     32          6           0       -2.444070    1.997158    0.080017
     33          6           0       -1.121413    2.579848   -0.418825
     34          1           0       -1.961186   -0.057886   -0.354798
     35          1           0       -2.815177    0.770343   -1.653204
     36          1           0       -2.405823    1.873304    1.169885
     37          1           0       -3.259871    2.701562   -0.127108
     38          1           0       -1.151836    2.731958   -1.502587
     39          1           0       -0.292935    1.898995   -0.198224
     40          1           0       -0.903741    3.543113    0.052980
 ---------------------------------------------------------------------

 SCF Done:  E(RHF) =  -470.732738772     A.U. after   11 cycles
 E2 =    -0.1583875362D+01 EUMP2 =    -0.47231661413342D+03

 The electronic state is 1-A.
 Alpha  occ. eigenvalues --  -11.21640 -11.21610 -11.21582 -11.21576 -11.21431
 Alpha  occ. eigenvalues --  -11.21374 -11.21368 -11.21314 -11.21151 -11.21074
 Alpha  occ. eigenvalues --  -11.21052 -11.21033  -1.08471  -1.08398  -1.03599
 Alpha  occ. eigenvalues --   -1.03480  -0.96031  -0.95951  -0.87050  -0.86968
 Alpha  occ. eigenvalues --   -0.79646  -0.79562  -0.78272  -0.78226  -0.65251
 Alpha  occ. eigenvalues --   -0.64925  -0.61251  -0.60660  -0.59375  -0.59323
 Alpha  occ. eigenvalues --   -0.57668  -0.57542  -0.55355  -0.55198  -0.52712
 Alpha  occ. eigenvalues --   -0.52654  -0.52468  -0.52377  -0.50127  -0.49778
 Alpha  occ. eigenvalues --   -0.48039  -0.47837  -0.46706  -0.46535  -0.45895
 Alpha  occ. eigenvalues --   -0.45744  -0.45696  -0.45528  -0.43815  -0.43760
 Alpha virt. eigenvalues --    0.20199   0.23027   0.23732   0.25220   0.25689
 Alpha virt. eigenvalues --    0.26237   0.26708   0.27613   0.28466   0.29221
 Alpha virt. eigenvalues --    0.30534   0.30922   0.31457   0.31843   0.32366

 Mulliken charges:
               1
     1  C   -0.298295
     2  C   -0.305712
     3  C   -0.481536
     4  H    0.149616
     5  H    0.149679
     6  H    0.156993
     7  H    0.152761
     8  H    0.155963
     9  H    0.158944
    10  H    0.161111
    11  C   -0.298474
    12  C   -0.299708
    13  C   -0.475752
    14  H    0.150038
    15  H    0.149721
    16  H    0.152073
    17  H    0.151884
    18  H    0.155175
    19  H    0.155346
    20  H    0.160287
    21  C   -0.298011
    22  C   -0.299680
    23  C   -0.475701
    24  H    0.150025
    25  H    0.149387
    26  H    0.151849
    27  H    0.151747
    28  H    0.155108
    29  H    0.155323
    30  H    0.160164
    31  C   -0.303915
    32  C   -0.298723
    33  C   -0.483839
    34  H    0.154693
    35  H    0.149222
    36  H    0.152400
    37  H    0.151793
    38  H    0.154694
    39  H    0.163415
    40  H    0.159932
 Sum of Mulliken charges =  -0.00000

 Dipole moment (field-independent basis, Debye):
    X=              0.0285    Y=             -0.0094    Z=              0.0157  Tot=              0.0338
 Quadrupole moment (field-independent basis, Debye-Ang):
   XX=            -86.1732   YY=            -84.9104   ZZ=            -83.7223
   XY=             -1.2363   XZ=              1.3552   YZ=             -0.3860

 Normal termination of Gaussian 16 at Wed May  5 21:33:31 2021.
