 Gaussian 16, Revision A.03,
 Gaussian 16:  EM64L-G16RevA.03 25-Dec-2016

 -------------
 #p 6-31g* mp2
 -------------

 ------------------------------------------------------
 Input file generated by CHIRIPA (05-May-2021 14:57:26)
 ------------------------------------------------------
 Symbolic Z-matrix:
 Charge =  0 Multiplicity = 1

                         Standard orientation:
 ---------------------------------------------------------------------
 Center     Atomic      Atomic             Coordinates (Angstroms)
 Number     Number       Type             X           Y           Z
 ---------------------------------------------------------------------
      1          6           0        4.791618    1.374031    0.387553
      2          6           0        4.924205    0.499782   -0.696251
      3          6           0        3.953473   -0.475085   -0.944970
      4          6           0        2.858096   -0.547870   -0.085817
      5          6           0        2.697687    0.308691    1.002237
      6          6           0        3.680741    1.275868    1.231850
      7          1           0        5.550492    2.128344    0.573343
      8          1           0        5.785871    0.573703   -1.353603
      9          1           0        4.031137   -1.164670   -1.776750
     10          1           0        1.827607    0.210623    1.640016
     11          1           0        3.575154    1.953482    2.074308
     12          7           0        1.823903   -1.575847   -0.339012
     13          8           0        0.868270   -1.619388    0.432680
     14          8           0        1.988518   -2.318570   -1.304362
     15          6           0       -3.838882   -1.950723    0.577230
     16          6           0       -2.735591   -1.421230    1.254658
     17          6           0       -2.277891   -0.131827    0.967431
     18          6           0       -2.950204    0.603623   -0.007455
     19          6           0       -4.052242    0.103902   -0.699611
     20          6           0       -4.492532   -1.187813   -0.396027
     21          1           0       -4.187671   -2.953261    0.806709
     22          1           0       -2.226009   -2.011435    2.010983
     23          1           0       -1.426235    0.302645    1.476679
     24          1           0       -4.539691    0.716279   -1.448482
     25          1           0       -5.349621   -1.596452   -0.923719
     26          7           0       -2.474872    1.969880   -0.320188
     27          8           0       -3.084511    2.597524   -1.183345
     28          8           0       -1.501668    2.387238    0.303770
 ---------------------------------------------------------------------

 SCF Done:  E(RHF) =  -868.339581858     A.U. after   16 cycles
 E2 =    -0.2599399051D+01 EUMP2 =    -0.87093898090866D+03

 The electronic state is 1-A.
 Alpha  occ. eigenvalues --  -20.61031 -20.60995 -20.60251 -20.60229 -15.86048
 Alpha  occ. eigenvalues --  -15.85284 -11.31152 -11.30320 -11.27715 -11.27694
 Alpha  occ. eigenvalues --  -11.27387 -11.26902 -11.26826 -11.26663 -11.26633
 Alpha  occ. eigenvalues --  -11.26556 -11.25877 -11.25726  -1.60071  -1.59318
 Alpha  occ. eigenvalues --   -1.39641  -1.38884  -1.19298  -1.18465  -1.08742
 Alpha  occ. eigenvalues --   -1.07931  -1.04667  -1.03812  -0.95627  -0.94821
 Alpha  occ. eigenvalues --   -0.86085  -0.85248  -0.82484  -0.81660  -0.77563
 Alpha  occ. eigenvalues --   -0.76740  -0.72301  -0.71523  -0.71369  -0.70627
 Alpha  occ. eigenvalues --   -0.70425  -0.69607  -0.64967  -0.64680  -0.64128
 Alpha  occ. eigenvalues --   -0.63836  -0.62036  -0.61181  -0.55188  -0.54372
 Alpha  occ. eigenvalues --   -0.52996  -0.52771  -0.52150  -0.51928  -0.49050
 Alpha  occ. eigenvalues --   -0.49001  -0.48286  -0.48240  -0.45102  -0.44361
 Alpha  occ. eigenvalues --   -0.37259  -0.36442  -0.36243  -0.35333
 Alpha virt. eigenvalues --    0.04926   0.05814   0.11402   0.12276   0.16512
 Alpha virt. eigenvalues --    0.17353   0.20882   0.22364   0.25851   0.27781
 Alpha virt. eigenvalues --    0.28619   0.29488   0.30972   0.31650   0.32247

 Mulliken charges:
               1
     1  C   -0.169626
     2  C   -0.218314
     3  C   -0.170360
     4  C    0.158486
     5  C   -0.165259
     6  C   -0.216873
     7  H    0.226552
     8  H    0.223598
     9  H    0.274939
    10  H    0.271041
    11  H    0.225667
    12  N    0.491289
    13  O   -0.471366
    14  O   -0.458309
    15  C   -0.170618
    16  C   -0.208896
    17  C   -0.157858
    18  C    0.154954
    19  C   -0.172023
    20  C   -0.218714
    21  H    0.223869
    22  H    0.226549
    23  H    0.270077
    24  H    0.272006
    25  H    0.220183
    26  N    0.488789
    27  O   -0.462473
    28  O   -0.467311
 Sum of Mulliken charges =  -0.00000

 Dipole moment (field-independent basis, Debye):
    X=              2.2337    Y=             -1.2984    Z=              2.0326  Tot=              3.2874
 Quadrupole moment (field-independent basis, Debye-Ang):
   XX=            -71.1610   YY=           -115.4753   ZZ=           -100.2165
   XY=             21.2577   XZ=             -0.7101   YZ=              1.0335

 Normal termination of Gaussian 16 at Wed May  5 17:59:43 2021.
