 Gaussian 16, Revision A.03,
 Gaussian 16:  EM64L-G16RevA.03 25-Dec-2016

 -------------
 #p 6-31g* mp2
 -------------

 ------------------------------------------------------
 Input file generated by CHIRIPA (05-May-2021 14:55:22)
 ------------------------------------------------------
 Symbolic Z-matrix:
 Charge =  0 Multiplicity = 1

                         Standard orientation:
 ---------------------------------------------------------------------
 Center     Atomic      Atomic             Coordinates (Angstroms)
 Number     Number       Type             X           Y           Z
 ---------------------------------------------------------------------
      1          6           0        4.511087    1.316285    0.959837
      2          6           0        3.323122    1.041947    1.645402
      3          6           0        2.365135    0.187233    1.091984
      4          6           0        2.628945   -0.378442   -0.154493
      5          6           0        3.802877   -0.124621   -0.862129
      6          6           0        4.746758    0.733153   -0.289538
      7          1           0        5.249796    1.981436    1.397193
      8          1           0        3.137415    1.493398    2.615840
      9          1           0        1.436922   -0.042364    1.601027
     10          1           0        3.959731   -0.589574   -1.827859
     11          1           0        5.668453    0.944403   -0.824231
     12          7           0        1.622234   -1.284909   -0.750521
     13          8           0        1.878517   -1.770669   -1.850064
     14          8           0        0.595952   -1.492474   -0.106860
     15          6           0       -3.189063    0.948420    0.014887
     16          6           0       -4.019495    2.097545   -0.557722
     17          6           0       -3.228749    3.401699   -0.665867
     18          1           0       -2.813632    1.234594    1.006907
     19          1           0       -2.306157    0.791394   -0.620105
     20          1           0       -4.901294    2.251446    0.077386
     21          1           0       -4.393152    1.808527   -1.548412
     22          1           0       -2.357697    3.271280   -1.316143
     23          1           0       -2.868725    3.716716    0.318891
     24          1           0       -3.841484    4.209758   -1.077518
     25          6           0       -3.965787   -0.362066    0.129140
     26          6           0       -3.135356   -1.511190    0.701749
     27          6           0       -3.926102   -2.815344    0.809895
     28          1           0       -4.848694   -0.205040    0.764132
     29          1           0       -4.341219   -0.648240   -0.862878
     30          1           0       -2.761699   -1.222173    1.692439
     31          1           0       -2.253556   -1.665091    0.066643
     32          1           0       -4.286125   -3.130360   -0.174863
     33          1           0       -4.797155   -2.684925    1.460171
     34          1           0       -3.313367   -3.623403    1.221546
 ---------------------------------------------------------------------

 SCF Done:  E(RHF) =  -669.536187911     A.U. after   15 cycles
 E2 =    -0.2091029526D+01 EUMP2 =    -0.67162721743730D+03

 The electronic state is 1-A.
 Alpha  occ. eigenvalues --  -20.60947 -20.60940 -15.85979 -11.31283 -11.27848
 Alpha  occ. eigenvalues --  -11.27839 -11.27584 -11.26852 -11.26841 -11.21083
 Alpha  occ. eigenvalues --  -11.20730 -11.20666 -11.20486 -11.20284 -11.20042
 Alpha  occ. eigenvalues --   -1.60009  -1.39565  -1.19452  -1.08860  -1.07618
 Alpha  occ. eigenvalues --   -1.04846  -1.02720  -0.95704  -0.95224  -0.86252
 Alpha  occ. eigenvalues --   -0.86242  -0.82540  -0.78803  -0.77612  -0.77351
 Alpha  occ. eigenvalues --   -0.72202  -0.71323  -0.70560  -0.65109  -0.64849
 Alpha  occ. eigenvalues --   -0.64248  -0.62192  -0.60114  -0.58608  -0.56803
 Alpha  occ. eigenvalues --   -0.55352  -0.54530  -0.53179  -0.52937  -0.51931
 Alpha  occ. eigenvalues --   -0.51644  -0.49205  -0.48962  -0.48958  -0.47110
 Alpha  occ. eigenvalues --   -0.45824  -0.45116  -0.44940  -0.44625  -0.42981
 Alpha  occ. eigenvalues --   -0.37431  -0.36446
 Alpha virt. eigenvalues --    0.04925   0.11209   0.16413   0.21310   0.23606
 Alpha virt. eigenvalues --    0.25084   0.27123   0.27512   0.27762   0.28584
 Alpha virt. eigenvalues --    0.28877   0.30974   0.32101   0.32258   0.32806

 Mulliken charges:
               1
     1  C   -0.170526
     2  C   -0.218532
     3  C   -0.170628
     4  C    0.157445
     5  C   -0.170571
     6  C   -0.218634
     7  H    0.225991
     8  H    0.223883
     9  H    0.276403
    10  H    0.275736
    11  H    0.223753
    12  N    0.492476
    13  O   -0.459412
    14  O   -0.464019
    15  C   -0.297781
    16  C   -0.298959
    17  C   -0.475014
    18  H    0.143811
    19  H    0.155411
    20  H    0.150030
    21  H    0.152298
    22  H    0.154725
    23  H    0.151871
    24  H    0.158501
    25  C   -0.297663
    26  C   -0.309117
    27  C   -0.474932
    28  H    0.144400
    29  H    0.148903
    30  H    0.144100
    31  H    0.182453
    32  H    0.154010
    33  H    0.148855
    34  H    0.160736
 Sum of Mulliken charges =  -0.00000

 Dipole moment (field-independent basis, Debye):
    X=              3.8270    Y=              3.0917    Z=              2.0066  Tot=              5.3133
 Quadrupole moment (field-independent basis, Debye-Ang):
   XX=            -75.9338   YY=            -99.2128   ZZ=            -91.7280
   XY=              6.4776   XZ=              2.5182   YZ=             -0.0664

 Normal termination of Gaussian 16 at Thu May  6 19:13:55 2021.
