 Gaussian 16, Revision A.03,
 Gaussian 16:  EM64L-G16RevA.03 25-Dec-2016

 -------------
 #p 6-31g* mp2
 -------------

 ------------------------------------------------------
 Input file generated by CHIRIPA (05-May-2021 14:53:16)
 ------------------------------------------------------
 Symbolic Z-matrix:
 Charge =  0 Multiplicity = 1

                         Standard orientation:
 ---------------------------------------------------------------------
 Center     Atomic      Atomic             Coordinates (Angstroms)
 Number     Number       Type             X           Y           Z
 ---------------------------------------------------------------------
      1          6           0        5.467222   -0.490828    0.046597
      2          6           0        6.448206    0.681972    0.060594
      3          6           0        7.909035    0.230669    0.070496
      4          1           0        5.650737   -1.124593    0.925009
      5          1           0        5.665161   -1.114852   -0.835905
      6          1           0        6.247571    1.304363    0.942065
      7          1           0        6.262208    1.313124   -0.817853
      8          1           0        8.131973   -0.372297   -0.815693
      9          1           0        8.117253   -0.381108    0.954224
     10          1           0        8.593088    1.084971    0.080438
     11          6           0        4.002882   -0.055700    0.036584
     12          6           0        3.021899   -1.228500    0.022587
     13          6           0        1.561070   -0.777197    0.012685
     14          1           0        3.804944    0.568324    0.919086
     15          1           0        3.819368    0.578065   -0.841828
     16          1           0        3.207897   -1.859652    0.901033
     17          1           0        3.222534   -1.850891   -0.858884
     18          1           0        1.352851   -0.165420   -0.871043
     19          1           0        1.338132   -0.174231    0.898874
     20          1           0        0.877016   -1.631499    0.002743
     21          6           0       -2.360001    2.348147   -0.157141
     22          6           0       -3.719674    2.392813    0.168152
     23          6           0       -4.471529    1.216341    0.240099
     24          6           0       -3.828734    0.007116   -0.020442
     25          6           0       -2.475725   -0.070088   -0.347085
     26          6           0       -1.743453    1.119007   -0.413270
     27          1           0       -1.783549    3.266962   -0.210794
     28          1           0       -4.201131    3.345956    0.367559
     29          1           0       -5.525612    1.222064    0.489684
     30          1           0       -2.023573   -1.035236   -0.540647
     31          1           0       -0.687668    1.081293   -0.666133
     32          7           0       -4.614323   -1.245043    0.052676
     33          8           0       -4.024561   -2.297701   -0.181266
     34          8           0       -5.804955   -1.150118    0.342541
 ---------------------------------------------------------------------

 SCF Done:  E(RHF) =  -669.535437162     A.U. after   15 cycles
 E2 =    -0.2091302930D+01 EUMP2 =    -0.67162674009194D+03

 The electronic state is 1-A.
 Alpha  occ. eigenvalues --  -20.60687 -20.60682 -15.85738 -11.31074 -11.27646
 Alpha  occ. eigenvalues --  -11.27612 -11.27369 -11.26664 -11.26564 -11.22300
 Alpha  occ. eigenvalues --  -11.22114 -11.22016 -11.22002 -11.21837 -11.21400
 Alpha  occ. eigenvalues --   -1.59763  -1.39317  -1.19240  -1.08998  -1.08643
 Alpha  occ. eigenvalues --   -1.04638  -1.04129  -0.96616  -0.95483  -0.87653
 Alpha  occ. eigenvalues --   -0.86034  -0.82316  -0.80215  -0.78788  -0.77355
 Alpha  occ. eigenvalues --   -0.71958  -0.71085  -0.70356  -0.65623  -0.64889
 Alpha  occ. eigenvalues --   -0.64655  -0.62017  -0.61509  -0.59977  -0.58201
 Alpha  occ. eigenvalues --   -0.55912  -0.55151  -0.53330  -0.53211  -0.52959
 Alpha  occ. eigenvalues --   -0.52530  -0.50548  -0.48729  -0.48714  -0.48480
 Alpha  occ. eigenvalues --   -0.47215  -0.46334  -0.46235  -0.44729  -0.44372
 Alpha  occ. eigenvalues --   -0.37228  -0.36230
 Alpha virt. eigenvalues --    0.05154   0.11400   0.16627   0.20402   0.22425
 Alpha virt. eigenvalues --    0.23781   0.25454   0.26135   0.26603   0.27798
 Alpha virt. eigenvalues --    0.28942   0.29526   0.31019   0.31505   0.32151

 Mulliken charges:
               1
     1  C   -0.298844
     2  C   -0.299970
     3  C   -0.476033
     4  H    0.151457
     5  H    0.150991
     6  H    0.151945
     7  H    0.151579
     8  H    0.156001
     9  H    0.156151
    10  H    0.161079
    11  C   -0.299041
    12  C   -0.299699
    13  C   -0.484051
    14  H    0.149442
    15  H    0.147927
    16  H    0.156668
    17  H    0.155364
    18  H    0.147597
    19  H    0.158116
    20  H    0.165327
    21  C   -0.172374
    22  C   -0.218505
    23  C   -0.171350
    24  C    0.158786
    25  C   -0.174399
    26  C   -0.223110
    27  H    0.225331
    28  H    0.222780
    29  H    0.275085
    30  H    0.276187
    31  H    0.233087
    32  N    0.488136
    33  O   -0.460797
    34  O   -0.460863
 Sum of Mulliken charges =  -0.00000

 Dipole moment (field-independent basis, Debye):
    X=              3.0139    Y=              4.3413    Z=             -0.2170  Tot=              5.2894
 Quadrupole moment (field-independent basis, Debye-Ang):
   XX=           -113.5273   YY=            -93.7378   ZZ=            -94.2733
   XY=            -19.4822   XZ=             -0.1401   YZ=              0.6168

 Normal termination of Gaussian 16 at Thu May  6 09:03:28 2021.
