 Gaussian 16, Revision A.03,
 Gaussian 16:  EM64L-G16RevA.03 25-Dec-2016

 -------------
 #p 6-31g* mp2
 -------------

 ------------------------------------------------------
 Input file generated by CHIRIPA (05-May-2021 14:51:09)
 ------------------------------------------------------
 Symbolic Z-matrix:
 Charge =  0 Multiplicity = 1

                         Standard orientation:
 ---------------------------------------------------------------------
 Center     Atomic      Atomic             Coordinates (Angstroms)
 Number     Number       Type             X           Y           Z
 ---------------------------------------------------------------------
      1          6           0        2.992939    0.683396   -0.093012
      2          6           0        4.438594    0.893750    0.358450
      3          6           0        4.669021    2.271127    0.980969
      4          1           0        2.724447    1.464373   -0.817534
      5          1           0        2.324271    0.813652    0.769143
      6          1           0        5.104444    0.761773   -0.504012
      7          1           0        4.703737    0.112069    1.081837
      8          1           0        4.028528    2.409526    1.858018
      9          1           0        4.431511    3.062921    0.263158
     10          1           0        5.709015    2.400141    1.296607
     11          6           0        2.746860   -0.688934   -0.717418
     12          6           0        1.301206   -0.899289   -1.168881
     13          6           0        1.070779   -2.276666   -1.791399
     14          1           0        3.415529   -0.819190   -1.579573
     15          1           0        3.015353   -1.469911    0.007104
     16          1           0        1.036062   -0.117607   -1.892268
     17          1           0        0.635356   -0.767311   -0.306418
     18          1           0        1.308288   -3.068460   -1.073589
     19          1           0        1.711271   -2.415064   -2.668449
     20          1           0        0.030784   -2.405680   -2.107037
     21          6           0       -2.560516   -0.692775    0.342514
     22          6           0       -1.890954   -1.176827    1.629123
     23          6           0       -1.276670   -2.569847    1.487902
     24          1           0       -3.339036   -1.410388    0.049453
     25          1           0       -1.819283   -0.687149   -0.468620
     26          1           0       -2.632893   -1.180220    2.437907
     27          1           0       -1.114068   -0.457880    1.919260
     28          1           0       -0.516479   -2.577594    0.700089
     29          1           0       -2.043933   -3.304038    1.221684
     30          1           0       -0.803419   -2.896222    2.419231
     31          6           0       -3.179283    0.698314    0.467917
     32          6           0       -3.848845    1.182365   -0.818693
     33          6           0       -4.463130    2.575386   -0.677472
     34          1           0       -3.920517    0.692688    1.279050
     35          1           0       -2.400764    1.415927    0.760977
     36          1           0       -4.625732    0.463419   -1.108829
     37          1           0       -3.106907    1.185759   -1.627477
     38          1           0       -3.695866    3.309576   -0.411254
     39          1           0       -5.223321    2.583132    0.110342
     40          1           0       -4.936380    2.901761   -1.608801
 ---------------------------------------------------------------------

 SCF Done:  E(RHF) =  -470.732183384     A.U. after   11 cycles
 E2 =    -0.1584664026D+01 EUMP2 =    -0.47231684740939D+03

 The electronic state is 1-A.
 Alpha  occ. eigenvalues --  -11.21655 -11.21638 -11.21605 -11.21585 -11.21458
 Alpha  occ. eigenvalues --  -11.21399 -11.21374 -11.21310 -11.21143 -11.21101
 Alpha  occ. eigenvalues --  -11.21058 -11.20999  -1.08515  -1.08394  -1.03650
 Alpha  occ. eigenvalues --   -1.03471  -0.96064  -0.95941  -0.87074  -0.86961
 Alpha  occ. eigenvalues --   -0.79671  -0.79579  -0.78355  -0.78183  -0.65381
 Alpha  occ. eigenvalues --   -0.64877  -0.61393  -0.60590  -0.59459  -0.59250
 Alpha  occ. eigenvalues --   -0.57642  -0.57571  -0.55525  -0.55050  -0.52732
 Alpha  occ. eigenvalues --   -0.52657  -0.52463  -0.52373  -0.50083  -0.49795
 Alpha  occ. eigenvalues --   -0.48034  -0.47845  -0.46742  -0.46578  -0.46002
 Alpha  occ. eigenvalues --   -0.45799  -0.45730  -0.45414  -0.43839  -0.43766
 Alpha virt. eigenvalues --    0.20498   0.23150   0.23476   0.24497   0.26013
 Alpha virt. eigenvalues --    0.26227   0.26719   0.27971   0.28576   0.29359
 Alpha virt. eigenvalues --    0.30410   0.31336   0.31635   0.31660   0.32230

 Mulliken charges:
               1
     1  C   -0.298448
     2  C   -0.299707
     3  C   -0.475765
     4  H    0.149606
     5  H    0.149159
     6  H    0.152094
     7  H    0.152178
     8  H    0.155209
     9  H    0.155175
    10  H    0.160444
    11  C   -0.297556
    12  C   -0.308543
    13  C   -0.480593
    14  H    0.149828
    15  H    0.149987
    16  H    0.151891
    17  H    0.159514
    18  H    0.156134
    19  H    0.157083
    20  H    0.162283
    21  C   -0.304815
    22  C   -0.300514
    23  C   -0.484606
    24  H    0.149504
    25  H    0.156499
    26  H    0.152661
    27  H    0.150542
    28  H    0.165954
    29  H    0.155262
    30  H    0.159397
    31  C   -0.297869
    32  C   -0.299686
    33  C   -0.475714
    34  H    0.149420
    35  H    0.149641
    36  H    0.151819
    37  H    0.152005
    38  H    0.155240
    39  H    0.155141
    40  H    0.160146
 Sum of Mulliken charges =  -0.00000

 Dipole moment (field-independent basis, Debye):
    X=              0.0306    Y=             -0.0113    Z=             -0.0317  Tot=              0.0455
 Quadrupole moment (field-independent basis, Debye-Ang):
   XX=            -84.3176   YY=            -86.3649   ZZ=            -84.1159
   XY=              0.6181   XZ=             -0.6272   YZ=             -0.8068

 Normal termination of Gaussian 16 at Thu May  6 05:21:40 2021.
