 Gaussian 16, Revision A.03,
 Gaussian 16:  EM64L-G16RevA.03 25-Dec-2016

 -------------
 #p 6-31g* mp2
 -------------

 ------------------------------------------------------
 Input file generated by CHIRIPA (05-May-2021 14:51:08)
 ------------------------------------------------------
 Symbolic Z-matrix:
 Charge =  0 Multiplicity = 1

                         Standard orientation:
 ---------------------------------------------------------------------
 Center     Atomic      Atomic             Coordinates (Angstroms)
 Number     Number       Type             X           Y           Z
 ---------------------------------------------------------------------
      1          6           0       -4.367638   -0.615063   -0.282964
      2          6           0       -5.446917    0.464519   -0.195525
      3          6           0       -6.668850    0.150144   -1.059146
      4          1           0       -4.057950   -0.730954   -1.330631
      5          1           0       -4.796978   -1.578670    0.024484
      6          1           0       -5.015301    1.426062   -0.501723
      7          1           0       -5.753935    0.577987    0.852082
      8          1           0       -7.125791   -0.795620   -0.750381
      9          1           0       -6.382961    0.057274   -2.111878
     10          1           0       -7.427843    0.934865   -0.981673
     11          6           0       -3.139742   -0.315028    0.574928
     12          6           0       -2.060464   -1.394610    0.487490
     13          6           0       -0.838530   -1.080235    1.351111
     14          1           0       -2.710403    0.648579    0.267481
     15          1           0       -3.449430   -0.199137    1.622596
     16          1           0       -1.753445   -1.508078   -0.560117
     17          1           0       -2.492079   -2.356153    0.793688
     18          1           0       -1.124420   -0.987365    2.403843
     19          1           0       -0.381589   -0.134471    1.042345
     20          1           0       -0.079537   -1.864956    1.273637
     21          6           0        4.120151   -0.075656   -0.541936
     22          6           0        5.479750   -0.445616    0.051868
     23          6           0        6.200700   -1.528596   -0.751363
     24          1           0        3.492201   -0.975680   -0.592751
     25          1           0        4.260582    0.266321   -1.576696
     26          1           0        5.336953   -0.785483    1.085656
     27          1           0        6.104468    0.455430    0.101453
     28          1           0        6.372252   -1.195347   -1.780011
     29          1           0        5.600375   -2.443311   -0.790215
     30          1           0        7.170413   -1.777740   -0.309275
     31          6           0        3.387229    1.005747    0.249972
     32          6           0        2.027630    1.375707   -0.343833
     33          6           0        1.306680    2.458687    0.459398
     34          1           0        3.246799    0.663770    1.284730
     35          1           0        4.015179    1.905772    0.300786
     36          1           0        1.402912    0.474661   -0.393417
     37          1           0        2.170427    1.715574   -1.377620
     38          1           0        1.907006    3.373401    0.498251
     39          1           0        1.135129    2.125438    1.488045
     40          1           0        0.336967    2.707831    0.017310
 ---------------------------------------------------------------------

 SCF Done:  E(RHF) =  -470.733048895     A.U. after   11 cycles
 E2 =    -0.1583008196D+01 EUMP2 =    -0.47231605709109D+03

 The electronic state is 1-A.
 Alpha  occ. eigenvalues --  -11.21619 -11.21605 -11.21589 -11.21573 -11.21412
 Alpha  occ. eigenvalues --  -11.21388 -11.21353 -11.21329 -11.21098 -11.21073
 Alpha  occ. eigenvalues --  -11.21063 -11.21060  -1.08447  -1.08412  -1.03578
 Alpha  occ. eigenvalues --   -1.03495  -0.96030  -0.95946  -0.87013  -0.86994
 Alpha  occ. eigenvalues --   -0.79631  -0.79566  -0.78258  -0.78223  -0.65174
 Alpha  occ. eigenvalues --   -0.64973  -0.61206  -0.60709  -0.59370  -0.59336
 Alpha  occ. eigenvalues --   -0.57626  -0.57567  -0.55474  -0.55070  -0.52687
 Alpha  occ. eigenvalues --   -0.52677  -0.52422  -0.52381  -0.49948  -0.49912
 Alpha  occ. eigenvalues --   -0.47974  -0.47841  -0.46744  -0.46509  -0.45826
 Alpha  occ. eigenvalues --   -0.45755  -0.45724  -0.45613  -0.43796  -0.43778
 Alpha virt. eigenvalues --    0.20919   0.23088   0.23656   0.24860   0.26464
 Alpha virt. eigenvalues --    0.26528   0.27052   0.27553   0.28061   0.29108
 Alpha virt. eigenvalues --    0.30983   0.31337   0.31568   0.31657   0.32085

 Mulliken charges:
               1
     1  C   -0.298360
     2  C   -0.299660
     3  C   -0.475717
     4  H    0.149680
     5  H    0.149548
     6  H    0.151945
     7  H    0.151986
     8  H    0.155180
     9  H    0.155188
    10  H    0.160287
    11  C   -0.298455
    12  C   -0.299735
    13  C   -0.484449
    14  H    0.149723
    15  H    0.149760
    16  H    0.151885
    17  H    0.152052
    18  H    0.155141
    19  H    0.165788
    20  H    0.159025
    21  C   -0.298405
    22  C   -0.299692
    23  C   -0.475694
    24  H    0.149850
    25  H    0.149350
    26  H    0.152069
    27  H    0.151893
    28  H    0.155118
    29  H    0.155140
    30  H    0.160232
    31  C   -0.297960
    32  C   -0.305056
    33  C   -0.477911
    34  H    0.150149
    35  H    0.149519
    36  H    0.156683
    37  H    0.151857
    38  H    0.156041
    39  H    0.156645
    40  H    0.159361
 Sum of Mulliken charges =  -0.00000

 Dipole moment (field-independent basis, Debye):
    X=             -0.0004    Y=              0.0082    Z=              0.0087  Tot=              0.0119
 Quadrupole moment (field-independent basis, Debye-Ang):
   XX=            -85.7416   YY=            -84.6776   ZZ=            -84.3971
   XY=              0.9539   XZ=             -0.8163   YZ=             -1.1981

 Normal termination of Gaussian 16 at Thu May  6 05:16:05 2021.
