 Gaussian 16, Revision A.03,
 Gaussian 16:  EM64L-G16RevA.03 25-Dec-2016

 -------------
 #p 6-31g* mp2
 -------------

 ------------------------------------------------------
 Input file generated by CHIRIPA (05-May-2021 14:57:26)
 ------------------------------------------------------
 Symbolic Z-matrix:
 Charge =  0 Multiplicity = 1

                         Standard orientation:
 ---------------------------------------------------------------------
 Center     Atomic      Atomic             Coordinates (Angstroms)
 Number     Number       Type             X           Y           Z
 ---------------------------------------------------------------------
      1          6           0       -0.817160   -0.665595   -1.134899
      2          6           0       -1.644373   -1.638043   -0.563423
      3          6           0       -2.897562   -1.291395   -0.049710
      4          6           0       -3.293605    0.043099   -0.124324
      5          6           0       -2.492147    1.034899   -0.687607
      6          6           0       -1.242936    0.665426   -1.195061
      7          1           0        0.154802   -0.943745   -1.531532
      8          1           0       -1.316315   -2.672504   -0.515344
      9          1           0       -3.558007   -2.024001    0.398082
     10          1           0       -2.846625    2.057950   -0.721235
     11          1           0       -0.602612    1.422762   -1.638313
     12          7           0       -4.618194    0.422162    0.416208
     13          8           0       -4.943931    1.604734    0.338401
     14          8           0       -5.305589   -0.470479    0.907448
     15          6           0        3.433957    2.515899    0.145192
     16          6           0        3.528547    1.762761   -1.029694
     17          6           0        3.331742    0.378874   -1.003724
     18          6           0        3.040623   -0.221979    0.220005
     19          6           0        2.939703    0.501085    1.407558
     20          6           0        3.140355    1.883772    1.357929
     21          1           0        3.588334    3.590470    0.115828
     22          1           0        3.756433    2.251001   -1.972951
     23          1           0        3.399078   -0.228275   -1.898294
     24          1           0        2.711166   -0.013831    2.332788
     25          1           0        3.066277    2.466145    2.271932
     26          7           0        2.830238   -1.686403    0.260021
     27          8           0        2.574916   -2.191936    1.350839
     28          8           0        2.924642   -2.300957   -0.800191
 ---------------------------------------------------------------------

 SCF Done:  E(RHF) =  -868.339279842     A.U. after   16 cycles
 E2 =    -0.2600249759D+01 EUMP2 =    -0.87093952960114D+03

 The electronic state is 1-A.
 Alpha  occ. eigenvalues --  -20.61912 -20.61860 -20.60591 -20.60578 -15.86902
 Alpha  occ. eigenvalues --  -15.85636 -11.32145 -11.30928 -11.28730 -11.28627
 Alpha  occ. eigenvalues --  -11.28364 -11.27694 -11.27603 -11.27518 -11.27423
 Alpha  occ. eigenvalues --  -11.27125 -11.26527 -11.26357  -1.60954  -1.59664
 Alpha  occ. eigenvalues --   -1.40508  -1.39220  -1.20297  -1.19077  -1.09710
 Alpha  occ. eigenvalues --   -1.08475  -1.05669  -1.04464  -0.96564  -0.95329
 Alpha  occ. eigenvalues --   -0.87069  -0.85854  -0.83391  -0.82164  -0.78466
 Alpha  occ. eigenvalues --   -0.77230  -0.73115  -0.72318  -0.71855  -0.71374
 Alpha  occ. eigenvalues --   -0.70987  -0.70125  -0.65938  -0.65647  -0.64719
 Alpha  occ. eigenvalues --   -0.64444  -0.63007  -0.61809  -0.56147  -0.54944
 Alpha  occ. eigenvalues --   -0.54010  -0.53739  -0.52797  -0.52537  -0.49895
 Alpha  occ. eigenvalues --   -0.49867  -0.48616  -0.48605  -0.45920  -0.44642
 Alpha  occ. eigenvalues --   -0.38281  -0.37274  -0.37020  -0.36070
 Alpha virt. eigenvalues --    0.04010   0.05295   0.10301   0.11585   0.15553
 Alpha virt. eigenvalues --    0.16796   0.20538   0.21729   0.26436   0.27234
 Alpha virt. eigenvalues --    0.27654   0.28327   0.30244   0.31068   0.32366

 Mulliken charges:
               1
     1  C   -0.179113
     2  C   -0.218022
     3  C   -0.171619
     4  C    0.158182
     5  C   -0.172624
     6  C   -0.217850
     7  H    0.231017
     8  H    0.232875
     9  H    0.275957
    10  H    0.272558
    11  H    0.218693
    12  N    0.488080
    13  O   -0.462699
    14  O   -0.460040
    15  C   -0.170932
    16  C   -0.220444
    17  C   -0.179849
    18  C    0.158063
    19  C   -0.168428
    20  C   -0.217780
    21  H    0.229160
    22  H    0.225546
    23  H    0.274605
    24  H    0.278914
    25  H    0.228043
    26  N    0.486813
    27  O   -0.453966
    28  O   -0.465142
 Sum of Mulliken charges =  -0.00000

 Dipole moment (field-independent basis, Debye):
    X=              5.6409    Y=              3.7805    Z=             -1.8334  Tot=              7.0337
 Quadrupole moment (field-independent basis, Debye-Ang):
   XX=           -132.2656   YY=           -102.8673   ZZ=            -99.8406
   XY=             21.8515   XZ=              4.7147   YZ=              0.1765

 Normal termination of Gaussian 16 at Thu May  6 05:10:58 2021.
