 Gaussian 16, Revision A.03,
 Gaussian 16:  EM64L-G16RevA.03 25-Dec-2016

 -------------
 #p 6-31g* mp2
 -------------

 ------------------------------------------------------
 Input file generated by CHIRIPA (05-May-2021 14:53:18)
 ------------------------------------------------------
 Symbolic Z-matrix:
 Charge =  0 Multiplicity = 1

                         Standard orientation:
 ---------------------------------------------------------------------
 Center     Atomic      Atomic             Coordinates (Angstroms)
 Number     Number       Type             X           Y           Z
 ---------------------------------------------------------------------
      1          6           0       -3.401658   -0.371460    0.083593
      2          6           0       -4.467144   -1.404870   -0.283541
      3          6           0       -4.033340   -2.837524    0.028085
      4          1           0       -2.474464   -0.601552   -0.458914
      5          1           0       -3.167986   -0.460268    1.153596
      6          1           0       -4.699738   -1.313210   -1.352238
      7          1           0       -5.391967   -1.172180    0.259757
      8          1           0       -3.820259   -2.951887    1.095848
      9          1           0       -3.124097   -3.093718   -0.525306
     10          1           0       -4.809866   -3.559900   -0.242174
     11          6           0       -3.820637    1.065472   -0.222041
     12          6           0       -2.755151    2.098882    0.145093
     13          6           0       -3.188955    3.531536   -0.166533
     14          1           0       -4.054309    1.154280   -1.292043
     15          1           0       -4.747830    1.295564    0.320467
     16          1           0       -1.830327    1.866191   -0.398205
     17          1           0       -2.522556    2.007222    1.213791
     18          1           0       -4.098198    3.787730    0.386859
     19          1           0       -3.402036    3.645899   -1.234296
     20          1           0       -2.412428    4.253912    0.103727
     21          6           0        0.476934   -1.102739    0.476779
     22          6           0        1.008564   -1.135018   -0.816607
     23          6           0        2.306316   -0.676825   -1.062473
     24          6           0        3.047845   -0.190699    0.013216
     25          6           0        2.546194   -0.145595    1.313063
     26          6           0        1.246089   -0.609001    1.535620
     27          1           0       -0.532104   -1.460699    0.658719
     28          1           0        0.413522   -1.517925   -1.640835
     29          1           0        2.742616   -0.690394   -2.053874
     30          1           0        3.163531    0.241756    2.114483
     31          1           0        0.835811   -0.582734    2.541117
     32          7           0        4.422962    0.297129   -0.234732
     33          8           0        5.055844    0.720637    0.730015
     34          8           0        4.841857    0.246744   -1.389126
 ---------------------------------------------------------------------

 SCF Done:  E(RHF) =  -669.535419710     A.U. after   15 cycles
 E2 =    -0.2092036667D+01 EUMP2 =    -0.67162745637625D+03

 The electronic state is 1-A.
 Alpha  occ. eigenvalues --  -20.60725 -20.60720 -15.85780 -11.31130 -11.27716
 Alpha  occ. eigenvalues --  -11.27705 -11.27371 -11.26718 -11.26689 -11.22594
 Alpha  occ. eigenvalues --  -11.22524 -11.22258 -11.22181 -11.22145 -11.21564
 Alpha  occ. eigenvalues --   -1.59801  -1.39355  -1.19305  -1.09356  -1.08691
 Alpha  occ. eigenvalues --   -1.04711  -1.04359  -0.96831  -0.95531  -0.87840
 Alpha  occ. eigenvalues --   -0.86106  -0.82376  -0.80443  -0.79192  -0.77423
 Alpha  occ. eigenvalues --   -0.71997  -0.71125  -0.70397  -0.65984  -0.64952
 Alpha  occ. eigenvalues --   -0.64716  -0.62064  -0.61744  -0.60207  -0.58445
 Alpha  occ. eigenvalues --   -0.56138  -0.55210  -0.53472  -0.53244  -0.53026
 Alpha  occ. eigenvalues --   -0.52801  -0.50770  -0.48779  -0.48753  -0.48716
 Alpha  occ. eigenvalues --   -0.47483  -0.46670  -0.46612  -0.44764  -0.44638
 Alpha  occ. eigenvalues --   -0.37246  -0.36322
 Alpha virt. eigenvalues --    0.05101   0.11281   0.16550   0.19717   0.22526
 Alpha virt. eigenvalues --    0.23573   0.24929   0.26026   0.27115   0.27633
 Alpha virt. eigenvalues --    0.29445   0.30270   0.30804   0.31168   0.31702

 Mulliken charges:
               1
     1  C   -0.302586
     2  C   -0.299620
     3  C   -0.477729
     4  H    0.144042
     5  H    0.146169
     6  H    0.154920
     7  H    0.156179
     8  H    0.154622
     9  H    0.149602
    10  H    0.166251
    11  C   -0.298167
    12  C   -0.301292
    13  C   -0.476340
    14  H    0.151874
    15  H    0.152478
    16  H    0.154574
    17  H    0.150144
    18  H    0.155915
    19  H    0.156472
    20  H    0.163345
    21  C   -0.172262
    22  C   -0.221827
    23  C   -0.170689
    24  C    0.158014
    25  C   -0.170687
    26  C   -0.220372
    27  H    0.234090
    28  H    0.222316
    29  H    0.275284
    30  H    0.275327
    31  H    0.223169
    32  N    0.488122
    33  O   -0.460614
    34  O   -0.460725
 Sum of Mulliken charges =  -0.00000

 Dipole moment (field-independent basis, Debye):
    X=             -5.0650    Y=             -1.6393    Z=              0.8624  Tot=              5.3931
 Quadrupole moment (field-independent basis, Debye-Ang):
   XX=           -124.0462   YY=            -95.5273   ZZ=            -89.2035
   XY=             -4.0716   XZ=              2.8741   YZ=              1.2682

 Normal termination of Gaussian 16 at Wed May  5 22:04:10 2021.
