 Gaussian 16, Revision A.03,
 Gaussian 16:  EM64L-G16RevA.03 25-Dec-2016

 -------------
 #p 6-31g* mp2
 -------------

 ------------------------------------------------------
 Input file generated by CHIRIPA (05-May-2021 14:55:23)
 ------------------------------------------------------
 Symbolic Z-matrix:
 Charge =  0 Multiplicity = 1

                         Standard orientation:
 ---------------------------------------------------------------------
 Center     Atomic      Atomic             Coordinates (Angstroms)
 Number     Number       Type             X           Y           Z
 ---------------------------------------------------------------------
      1          6           0        0.567964   -1.577241   -0.397454
      2          6           0        1.609711   -2.236937    0.262913
      3          6           0        2.848742   -1.612837    0.435684
      4          6           0        3.012018   -0.322824   -0.066807
      5          6           0        1.993457    0.360608   -0.729185
      6          6           0        0.762819   -0.282856   -0.890526
      7          1           0       -0.391285   -2.069578   -0.527228
      8          1           0        1.461239   -3.242210    0.646878
      9          1           0        3.672308   -2.100469    0.943003
     10          1           0        2.171538    1.362338   -1.100994
     11          1           0       -0.044425    0.231893   -1.403787
     12          7           0        4.319282    0.348132    0.110048
     13          8           0        4.437736    1.484952   -0.341888
     14          8           0        5.200709   -0.275496    0.697254
     15          6           0       -3.169008    1.103439   -0.214512
     16          6           0       -2.670003    2.172295    0.758384
     17          6           0       -1.850180    3.263099    0.068578
     18          1           0       -2.307926    0.649901   -0.724203
     19          1           0       -3.777056    1.582533   -0.994346
     20          1           0       -2.064222    1.691147    1.536934
     21          1           0       -3.532362    2.623208    1.265960
     22          1           0       -2.448557    3.769506   -0.695684
     23          1           0       -0.972076    2.832149   -0.423169
     24          1           0       -1.503492    4.016743    0.782502
     25          6           0       -3.990199    0.006080    0.460156
     26          6           0       -4.489204   -1.062776   -0.512739
     27          6           0       -5.309027   -2.153580    0.177066
     28          1           0       -3.382152   -0.473014    1.239991
     29          1           0       -4.851281    0.459618    0.969849
     30          1           0       -3.626846   -1.513689   -1.020314
     31          1           0       -5.094986   -0.581628   -1.291290
     32          1           0       -6.187132   -1.722630    0.668814
     33          1           0       -4.710651   -2.659986    0.941329
     34          1           0       -5.655716   -2.907225   -0.536856
 ---------------------------------------------------------------------

 SCF Done:  E(RHF) =  -669.535374242     A.U. after   15 cycles
 E2 =    -0.2092100435D+01 EUMP2 =    -0.67162747467690D+03

 The electronic state is 1-A.
 Alpha  occ. eigenvalues --  -20.60775 -20.60770 -15.85829 -11.31211 -11.27787
 Alpha  occ. eigenvalues --  -11.27781 -11.27534 -11.26803 -11.26780 -11.22535
 Alpha  occ. eigenvalues --  -11.22364 -11.22292 -11.22236 -11.21859 -11.21758
 Alpha  occ. eigenvalues --   -1.59851  -1.39403  -1.19388  -1.09302  -1.08779
 Alpha  occ. eigenvalues --   -1.04795  -1.04331  -0.96779  -0.95611  -0.87792
 Alpha  occ. eigenvalues --   -0.86195  -0.82444  -0.80393  -0.79135  -0.77485
 Alpha  occ. eigenvalues --   -0.72048  -0.71174  -0.70497  -0.66012  -0.65039
 Alpha  occ. eigenvalues --   -0.64761  -0.62192  -0.61679  -0.60138  -0.58387
 Alpha  occ. eigenvalues --   -0.56079  -0.55295  -0.53437  -0.53216  -0.53118
 Alpha  occ. eigenvalues --   -0.52889  -0.50731  -0.48822  -0.48801  -0.48694
 Alpha  occ. eigenvalues --   -0.47433  -0.46659  -0.46566  -0.44805  -0.44601
 Alpha  occ. eigenvalues --   -0.37365  -0.36388
 Alpha virt. eigenvalues --    0.05035   0.11170   0.16452   0.18459   0.22167
 Alpha virt. eigenvalues --    0.23319   0.24988   0.26030   0.26403   0.27968
 Alpha virt. eigenvalues --    0.29527   0.30498   0.31064   0.31388   0.31659

 Mulliken charges:
               1
     1  C   -0.173354
     2  C   -0.218691
     3  C   -0.170802
     4  C    0.158679
     5  C   -0.171858
     6  C   -0.222517
     7  H    0.226661
     8  H    0.223620
     9  H    0.275767
    10  H    0.276188
    11  H    0.229538
    12  N    0.487997
    13  O   -0.460127
    14  O   -0.460405
    15  C   -0.300613
    16  C   -0.300784
    17  C   -0.475481
    18  H    0.139674
    19  H    0.152707
    20  H    0.155271
    21  H    0.155409
    22  H    0.156864
    23  H    0.147869
    24  H    0.166101
    25  C   -0.299238
    26  C   -0.299218
    27  C   -0.476041
    28  H    0.149456
    29  H    0.154095
    30  H    0.143022
    31  H    0.155380
    32  H    0.158618
    33  H    0.154195
    34  H    0.162020
 Sum of Mulliken charges =  -0.00000

 Dipole moment (field-independent basis, Debye):
    X=             -4.7702    Y=             -2.2845    Z=             -0.5218  Tot=              5.3147
 Quadrupole moment (field-independent basis, Debye-Ang):
   XX=           -121.2265   YY=            -90.2882   ZZ=            -94.3171
   XY=             -8.4935   XZ=             -0.4864   YZ=             -1.5590

 Normal termination of Gaussian 16 at Thu May  6 04:42:52 2021.
