 Gaussian 16, Revision A.03,
 Gaussian 16:  EM64L-G16RevA.03 25-Dec-2016

 -------------
 #p 6-31g* mp2
 -------------

 ------------------------------------------------------
 Input file generated by CHIRIPA (05-May-2021 14:51:12)
 ------------------------------------------------------
 Symbolic Z-matrix:
 Charge =  0 Multiplicity = 1

                         Standard orientation:
 ---------------------------------------------------------------------
 Center     Atomic      Atomic             Coordinates (Angstroms)
 Number     Number       Type             X           Y           Z
 ---------------------------------------------------------------------
      1          6           0       -2.564178   -0.506928    0.078027
      2          6           0       -1.944047   -1.426929    1.130177
      3          6           0       -0.429286   -1.565698    0.975144
      4          1           0       -2.330636   -0.895214   -0.922791
      5          1           0       -2.095362    0.484538    0.145878
      6          1           0       -2.414868   -2.415967    1.061282
      7          1           0       -2.179255   -1.036512    2.128610
      8          1           0        0.058218   -0.589576    1.065295
      9          1           0       -0.178733   -1.976869   -0.008097
     10          1           0       -0.006678   -2.227671    1.737412
     11          6           0       -4.077936   -0.358155    0.219910
     12          6           0       -4.698067    0.561846   -0.832240
     13          6           0       -6.212828    0.700615   -0.677207
     14          1           0       -4.546752   -1.349620    0.152059
     15          1           0       -4.311478    0.030131    1.220728
     16          1           0       -4.462859    0.171429   -1.830673
     17          1           0       -4.227246    1.550885   -0.763345
     18          1           0       -6.463380    1.111786    0.306034
     19          1           0       -6.700332   -0.275507   -0.767359
     20          1           0       -6.635436    1.362588   -1.439476
     21          6           0        3.624033   -0.102968   -0.601592
     22          6           0        3.608649   -1.500594    0.018402
     23          6           0        4.218102   -2.561046   -0.899096
     24          1           0        3.076054   -0.125008   -1.553526
     25          1           0        4.660043    0.171821   -0.843601
     26          1           0        2.573123   -1.772102    0.260440
     27          1           0        4.156564   -1.475180    0.969064
     28          1           0        5.259854   -2.317060   -1.131094
     29          1           0        3.667415   -2.615668   -1.843745
     30          1           0        4.196876   -3.552580   -0.436203
     31          6           0        3.018081    0.968051    0.303655
     32          6           0        3.033464    2.365676   -0.316338
     33          6           0        2.424012    3.426129    0.601159
     34          1           0        1.982071    0.693261    0.545663
     35          1           0        3.566060    0.990090    1.255589
     36          1           0        2.485549    2.340264   -1.267001
     37          1           0        4.068991    2.637185   -0.558376
     38          1           0        2.974699    3.480751    1.545808
     39          1           0        1.382259    3.182143    0.833158
     40          1           0        2.445238    4.417662    0.138265
 ---------------------------------------------------------------------

 SCF Done:  E(RHF) =  -470.732947382     A.U. after   11 cycles
 E2 =    -0.1583398714D+01 EUMP2 =    -0.47231634609530D+03

 The electronic state is 1-A.
 Alpha  occ. eigenvalues --  -11.21664 -11.21636 -11.21569 -11.21461 -11.21457
 Alpha  occ. eigenvalues --  -11.21398 -11.21330 -11.21270 -11.21154 -11.21097
 Alpha  occ. eigenvalues --  -11.21071 -11.20995  -1.08487  -1.08361  -1.03589
 Alpha  occ. eigenvalues --   -1.03466  -0.96046  -0.95924  -0.87068  -0.86941
 Alpha  occ. eigenvalues --   -0.79681  -0.79518  -0.78325  -0.78140  -0.65131
 Alpha  occ. eigenvalues --   -0.64991  -0.61017  -0.60844  -0.59415  -0.59283
 Alpha  occ. eigenvalues --   -0.57674  -0.57519  -0.55419  -0.55141  -0.52762
 Alpha  occ. eigenvalues --   -0.52626  -0.52472  -0.52342  -0.50078  -0.49793
 Alpha  occ. eigenvalues --   -0.48027  -0.47849  -0.46770  -0.46497  -0.45979
 Alpha  occ. eigenvalues --   -0.45768  -0.45697  -0.45345  -0.43826  -0.43716
 Alpha virt. eigenvalues --    0.21408   0.22973   0.23918   0.24340   0.25371
 Alpha virt. eigenvalues --    0.26669   0.27145   0.27525   0.27949   0.29360
 Alpha virt. eigenvalues --    0.29870   0.31481   0.31698   0.31958   0.32260

 Mulliken charges:
               1
     1  C   -0.298299
     2  C   -0.300746
     3  C   -0.481991
     4  H    0.149625
     5  H    0.148902
     6  H    0.152273
     7  H    0.152332
     8  H    0.161137
     9  H    0.154900
    10  H    0.161426
    11  C   -0.298331
    12  C   -0.299694
    13  C   -0.475745
    14  H    0.149718
    15  H    0.149851
    16  H    0.151943
    17  H    0.151991
    18  H    0.155282
    19  H    0.155242
    20  H    0.160385
    21  C   -0.297152
    22  C   -0.308141
    23  C   -0.475320
    24  H    0.149082
    25  H    0.149082
    26  H    0.163385
    27  H    0.151032
    28  H    0.154758
    29  H    0.154516
    30  H    0.159831
    31  C   -0.306070
    32  C   -0.299117
    33  C   -0.475406
    34  H    0.156778
    35  H    0.149307
    36  H    0.151867
    37  H    0.151924
    38  H    0.155234
    39  H    0.153951
    40  H    0.160257
 Sum of Mulliken charges =  -0.00000

 Dipole moment (field-independent basis, Debye):
    X=             -0.0486    Y=             -0.0189    Z=              0.0193  Tot=              0.0556
 Quadrupole moment (field-independent basis, Debye-Ang):
   XX=            -85.4452   YY=            -84.9723   ZZ=            -84.5313
   XY=              0.8765   XZ=              0.7132   YZ=              0.0630

 Normal termination of Gaussian 16 at Wed May  5 16:47:35 2021.
