 Gaussian 16, Revision A.03,
 Gaussian 16:  EM64L-G16RevA.03 25-Dec-2016

 -------------
 #p 6-31g* mp2
 -------------

 ------------------------------------------------------
 Input file generated by CHIRIPA (05-May-2021 14:51:09)
 ------------------------------------------------------
 Symbolic Z-matrix:
 Charge =  0 Multiplicity = 1

                         Standard orientation:
 ---------------------------------------------------------------------
 Center     Atomic      Atomic             Coordinates (Angstroms)
 Number     Number       Type             X           Y           Z
 ---------------------------------------------------------------------
      1          6           0        2.647502    0.939003   -0.035347
      2          6           0        2.910064    2.442416    0.058433
      3          6           0        1.622477    3.265994    0.098875
      4          1           0        2.050335    0.732888   -0.934153
      5          1           0        2.037799    0.626051    0.823559
      6          1           0        3.520253    2.752190   -0.799661
      7          1           0        3.506838    2.644955    0.957018
      8          1           0        1.012698    2.985387    0.963762
      9          1           0        1.026189    3.093231   -0.802898
     10          1           0        1.833437    4.337843    0.165917
     11          6           0        3.925000    0.102331   -0.076665
     12          6           0        3.662439   -1.401082   -0.170445
     13          6           0        4.950025   -2.224659   -0.210887
     14          1           0        4.534703    0.415284   -0.935570
     15          1           0        4.522167    0.308447    0.822141
     16          1           0        3.065664   -1.603620   -1.069030
     17          1           0        3.052249   -1.710856    0.687649
     18          1           0        5.546313   -2.051897    0.690886
     19          1           0        5.559805   -1.944052   -1.075774
     20          1           0        4.739066   -3.296509   -0.277928
     21          6           0       -4.034776   -0.666608    0.013064
     22          6           0       -4.887832    0.589037   -0.170331
     23          6           0       -6.383053    0.280789   -0.254531
     24          1           0       -4.222249   -1.354801   -0.822514
     25          1           0       -4.354453   -1.188552    0.925629
     26          1           0       -4.565714    1.109194   -1.081537
     27          1           0       -4.698162    1.274403    0.665680
     28          1           0       -6.725644   -0.217553    0.658096
     29          1           0       -6.592443   -0.383701   -1.099047
     30          1           0       -6.974167    1.192534   -0.385551
     31          6           0       -2.537726   -0.374726    0.098948
     32          6           0       -1.684670   -1.630371    0.282343
     33          6           0       -0.189449   -1.322124    0.366542
     34          1           0       -2.218049    0.147217   -0.813618
     35          1           0       -2.350254    0.313467    0.934526
     36          1           0       -1.874341   -2.315737   -0.553668
     37          1           0       -2.006788   -2.150528    1.193547
     38          1           0        0.019941   -0.657633    1.211059
     39          1           0        0.153142   -0.823781   -0.546085
     40          1           0        0.401664   -2.233868    0.497562
 ---------------------------------------------------------------------

 SCF Done:  E(RHF) =  -470.731538947     A.U. after   11 cycles
 E2 =    -0.1584239909D+01 EUMP2 =    -0.47231577885621D+03

 The electronic state is 1-A.
 Alpha  occ. eigenvalues --  -11.21578 -11.21522 -11.21519 -11.21499 -11.21370
 Alpha  occ. eigenvalues --  -11.21310 -11.21302 -11.21207 -11.21054 -11.21030
 Alpha  occ. eigenvalues --  -11.21013 -11.20927  -1.08410  -1.08331  -1.03484
 Alpha  occ. eigenvalues --   -1.03460  -0.95987  -0.95866  -0.86990  -0.86910
 Alpha  occ. eigenvalues --   -0.79635  -0.79526  -0.78315  -0.77972  -0.65082
 Alpha  occ. eigenvalues --   -0.64939  -0.60899  -0.60852  -0.59426  -0.59171
 Alpha  occ. eigenvalues --   -0.57753  -0.57345  -0.55340  -0.55104  -0.52770
 Alpha  occ. eigenvalues --   -0.52631  -0.52479  -0.52109  -0.49987  -0.49779
 Alpha  occ. eigenvalues --   -0.48096  -0.47674  -0.46685  -0.46535  -0.45989
 Alpha  occ. eigenvalues --   -0.45760  -0.45427  -0.45265  -0.43742  -0.43649
 Alpha virt. eigenvalues --    0.21832   0.23116   0.24114   0.24386   0.24915
 Alpha virt. eigenvalues --    0.25934   0.27205   0.27587   0.27949   0.29827
 Alpha virt. eigenvalues --    0.30142   0.31215   0.31595   0.31888   0.32392

 Mulliken charges:
               1
     1  C   -0.300933
     2  C   -0.299229
     3  C   -0.475222
     4  H    0.149239
     5  H    0.155769
     6  H    0.151207
     7  H    0.151290
     8  H    0.154606
     9  H    0.154775
    10  H    0.159991
    11  C   -0.298124
    12  C   -0.301438
    13  C   -0.475648
    14  H    0.148663
    15  H    0.148835
    16  H    0.152030
    17  H    0.155277
    18  H    0.154825
    19  H    0.154821
    20  H    0.159714
    21  C   -0.298159
    22  C   -0.299555
    23  C   -0.475677
    24  H    0.149494
    25  H    0.149400
    26  H    0.151869
    27  H    0.151951
    28  H    0.155115
    29  H    0.155097
    30  H    0.160197
    31  C   -0.297896
    32  C   -0.301295
    33  C   -0.475959
    34  H    0.149139
    35  H    0.149314
    36  H    0.151257
    37  H    0.151035
    38  H    0.153848
    39  H    0.159196
    40  H    0.161181
 Sum of Mulliken charges =  -0.00000

 Dipole moment (field-independent basis, Debye):
    X=              0.0008    Y=             -0.0088    Z=              0.0067  Tot=              0.0111
 Quadrupole moment (field-independent basis, Debye-Ang):
   XX=            -87.0798   YY=            -85.4835   ZZ=            -82.6843
   XY=              0.4625   XZ=             -0.0863   YZ=              0.0137

 Normal termination of Gaussian 16 at Thu May  6 03:44:22 2021.
