 Gaussian 16, Revision A.03,
 Gaussian 16:  EM64L-G16RevA.03 25-Dec-2016

 -------------
 #p 6-31g* mp2
 -------------

 ------------------------------------------------------
 Input file generated by CHIRIPA (05-May-2021 14:55:25)
 ------------------------------------------------------
 Symbolic Z-matrix:
 Charge =  0 Multiplicity = 1

                         Standard orientation:
 ---------------------------------------------------------------------
 Center     Atomic      Atomic             Coordinates (Angstroms)
 Number     Number       Type             X           Y           Z
 ---------------------------------------------------------------------
      1          6           0       -5.210002    1.739430   -0.506376
      2          6           0       -4.168451    2.115104    0.348353
      3          6           0       -3.191074    1.189570    0.726067
      4          6           0       -3.286406   -0.108978    0.228097
      5          6           0       -4.311905   -0.513717   -0.625031
      6          6           0       -5.278284    0.428530   -0.989488
      7          1           0       -5.964981    2.464899   -0.794644
      8          1           0       -4.112898    3.132470    0.725083
      9          1           0       -2.373954    1.453540    1.386410
     10          1           0       -4.340677   -1.535221   -0.984365
     11          1           0       -6.086036    0.133960   -1.653424
     12          7           0       -2.257522   -1.097647    0.620949
     13          8           0       -2.363972   -2.235470    0.168552
     14          8           0       -1.364114   -0.716021    1.373824
     15          6           0        3.906962   -0.581650    0.022712
     16          6           0        2.655487   -0.620618   -0.854942
     17          6           0        1.631160   -1.650925   -0.378479
     18          1           0        4.367637   -1.578893    0.037863
     19          1           0        3.613725   -0.357048    1.057584
     20          1           0        2.951138   -0.843714   -1.888110
     21          1           0        2.197844    0.376881   -0.868160
     22          1           0        1.307725   -1.428438    0.643524
     23          1           0        2.065298   -2.655968   -0.382220
     24          1           0        0.744553   -1.661954   -1.020092
     25          6           0        4.940343    0.443497   -0.440890
     26          6           0        6.191818    0.482465    0.436764
     27          6           0        7.216145    1.512772   -0.039699
     28          1           0        5.233580    0.218895   -1.475762
     29          1           0        4.479667    1.440740   -0.456041
     30          1           0        6.649460   -0.515034    0.449981
     31          1           0        5.896167    0.705561    1.469932
     32          1           0        6.782006    2.517814   -0.035957
     33          1           0        7.539579    1.290285   -1.061702
     34          1           0        8.102752    1.523801    0.601913
 ---------------------------------------------------------------------

 SCF Done:  E(RHF) =  -669.535926696     A.U. after   15 cycles
 E2 =    -0.2091277262D+01 EUMP2 =    -0.67162720395773D+03

 The electronic state is 1-A.
 Alpha  occ. eigenvalues --  -20.60911 -20.60903 -15.85934 -11.31279 -11.27844
 Alpha  occ. eigenvalues --  -11.27839 -11.27582 -11.26854 -11.26844 -11.21085
 Alpha  occ. eigenvalues --  -11.20750 -11.20670 -11.20551 -11.20491 -11.19405
 Alpha  occ. eigenvalues --   -1.59960  -1.39519  -1.19447  -1.08847  -1.07656
 Alpha  occ. eigenvalues --   -1.04846  -1.02662  -0.95690  -0.95072  -0.86246
 Alpha  occ. eigenvalues --   -0.86079  -0.82521  -0.78756  -0.77571  -0.77439
 Alpha  occ. eigenvalues --   -0.72161  -0.71279  -0.70556  -0.65103  -0.64850
 Alpha  occ. eigenvalues --   -0.64295  -0.62194  -0.60058  -0.58522  -0.56693
 Alpha  occ. eigenvalues --   -0.55352  -0.54360  -0.53177  -0.52938  -0.51751
 Alpha  occ. eigenvalues --   -0.51502  -0.49230  -0.48907  -0.48689  -0.47048
 Alpha  occ. eigenvalues --   -0.45817  -0.45017  -0.44967  -0.44731  -0.42915
 Alpha  occ. eigenvalues --   -0.37425  -0.36448
 Alpha virt. eigenvalues --    0.04943   0.11207   0.16430   0.21339   0.23583
 Alpha virt. eigenvalues --    0.25229   0.27256   0.27387   0.28200   0.28218
 Alpha virt. eigenvalues --    0.29020   0.30914   0.32257   0.32453   0.32503

 Mulliken charges:
               1
     1  C   -0.170639
     2  C   -0.218528
     3  C   -0.170798
     4  C    0.158522
     5  C   -0.170838
     6  C   -0.218548
     7  H    0.225935
     8  H    0.223722
     9  H    0.275498
    10  H    0.275883
    11  H    0.223789
    12  N    0.488919
    13  O   -0.459181
    14  O   -0.459360
    15  C   -0.297754
    16  C   -0.299914
    17  C   -0.476999
    18  H    0.148643
    19  H    0.150742
    20  H    0.146173
    21  H    0.146810
    22  H    0.177079
    23  H    0.149357
    24  H    0.157858
    25  C   -0.297233
    26  C   -0.299092
    27  C   -0.475173
    28  H    0.147766
    29  H    0.147230
    30  H    0.151649
    31  H    0.151606
    32  H    0.153765
    33  H    0.154308
    34  H    0.158805
 Sum of Mulliken charges =  -0.00000

 Dipole moment (field-independent basis, Debye):
    X=             -3.9266    Y=              3.4269    Z=             -1.2600  Tot=              5.3619
 Quadrupole moment (field-independent basis, Debye-Ang):
   XX=            -71.8988   YY=            -93.4246   ZZ=            -94.3029
   XY=            -10.4941   XZ=              5.5678   YZ=              3.6521

 Normal termination of Gaussian 16 at Wed May  5 17:39:54 2021.
