 Gaussian 16, Revision A.03,
 Gaussian 16:  EM64L-G16RevA.03 25-Dec-2016

 -------------
 #p 6-31g* mp2
 -------------

 ------------------------------------------------------
 Input file generated by CHIRIPA (05-May-2021 14:53:17)
 ------------------------------------------------------
 Symbolic Z-matrix:
 Charge =  0 Multiplicity = 1

                         Standard orientation:
 ---------------------------------------------------------------------
 Center     Atomic      Atomic             Coordinates (Angstroms)
 Number     Number       Type             X           Y           Z
 ---------------------------------------------------------------------
      1          6           0        2.991021    0.603374    0.195154
      2          6           0        3.046756    1.745809    1.209905
      3          6           0        1.778121    2.599248    1.209519
      4          1           0        2.828127    1.020231   -0.808160
      5          1           0        2.121181   -0.030984    0.415071
      6          1           0        3.917022    2.377036    0.988982
      7          1           0        3.209728    1.326196    2.210895
      8          1           0        0.902673    1.988178    1.451980
      9          1           0        1.613986    3.044988    0.223124
     10          1           0        1.839428    3.409961    1.942216
     11          6           0        4.252090   -0.258775    0.183670
     12          6           0        4.196355   -1.401210   -0.831081
     13          6           0        5.464991   -2.254649   -0.830695
     14          1           0        5.121930    0.375583   -0.036247
     15          1           0        4.414985   -0.675632    1.186985
     16          1           0        4.033383   -0.981597   -1.832071
     17          1           0        3.326089   -2.032437   -0.610157
     18          1           0        5.629125   -2.700389    0.155701
     19          1           0        6.340438   -1.643579   -1.073155
     20          1           0        5.403683   -3.065362   -1.563392
     21          6           0       -1.851571    1.963443   -1.152006
     22          6           0       -3.237690    1.776826   -1.132763
     23          6           0       -3.790505    0.618245   -0.579016
     24          6           0       -2.923868   -0.337441   -0.050913
     25          6           0       -1.538715   -0.180521   -0.055250
     26          6           0       -1.007995    0.985897   -0.614136
     27          1           0       -1.430714    2.866500   -1.584165
     28          1           0       -3.895243    2.534312   -1.549759
     29          1           0       -4.859949    0.448175   -0.551029
     30          1           0       -0.908730   -0.953422    0.368024
     31          1           0        0.068865    1.128142   -0.627708
     32          7           0       -3.497412   -1.568126    0.538035
     33          8           0       -2.712378   -2.395058    0.996885
     34          8           0       -4.721129   -1.682503    0.529649
 ---------------------------------------------------------------------

 SCF Done:  E(RHF) =  -669.534395233     A.U. after   15 cycles
 E2 =    -0.2093048576D+01 EUMP2 =    -0.67162744380910D+03

 The electronic state is 1-A.
 Alpha  occ. eigenvalues --  -20.60706 -20.60701 -15.85756 -11.31100 -11.27653
 Alpha  occ. eigenvalues --  -11.27634 -11.27363 -11.26679 -11.26522 -11.22489
 Alpha  occ. eigenvalues --  -11.22424 -11.22142 -11.22058 -11.22045 -11.21451
 Alpha  occ. eigenvalues --   -1.59782  -1.39336  -1.19256  -1.09249  -1.08652
 Alpha  occ. eigenvalues --   -1.04667  -1.04253  -0.96739  -0.95497  -0.87757
 Alpha  occ. eigenvalues --   -0.86053  -0.82346  -0.80359  -0.79087  -0.77359
 Alpha  occ. eigenvalues --   -0.71976  -0.71104  -0.70366  -0.65868  -0.64900
 Alpha  occ. eigenvalues --   -0.64685  -0.62075  -0.61624  -0.60068  -0.58352
 Alpha  occ. eigenvalues --   -0.56040  -0.55150  -0.53383  -0.53325  -0.52903
 Alpha  occ. eigenvalues --   -0.52697  -0.50671  -0.48792  -0.48734  -0.48529
 Alpha  occ. eigenvalues --   -0.47380  -0.46534  -0.46489  -0.44747  -0.44533
 Alpha  occ. eigenvalues --   -0.37225  -0.36226
 Alpha virt. eigenvalues --    0.05127   0.11361   0.16558   0.19878   0.22505
 Alpha virt. eigenvalues --    0.23909   0.24276   0.25937   0.26990   0.28617
 Alpha virt. eigenvalues --    0.29259   0.29875   0.30697   0.31490   0.31626

 Mulliken charges:
               1
     1  C   -0.305403
     2  C   -0.297941
     3  C   -0.484475
     4  H    0.146397
     5  H    0.145084
     6  H    0.155242
     7  H    0.157349
     8  H    0.159942
     9  H    0.146678
    10  H    0.166939
    11  C   -0.297877
    12  C   -0.300838
    13  C   -0.476346
    14  H    0.151966
    15  H    0.153614
    16  H    0.151431
    17  H    0.153349
    18  H    0.157200
    19  H    0.155613
    20  H    0.162773
    21  C   -0.174687
    22  C   -0.218169
    23  C   -0.171605
    24  C    0.159502
    25  C   -0.177600
    26  C   -0.222974
    27  H    0.225309
    28  H    0.222920
    29  H    0.275124
    30  H    0.274603
    31  H    0.240390
    32  N    0.488148
    33  O   -0.460961
    34  O   -0.460695
 Sum of Mulliken charges =  -0.00000

 Dipole moment (field-independent basis, Debye):
    X=              2.2797    Y=              4.3296    Z=             -1.9973  Tot=              5.2850
 Quadrupole moment (field-independent basis, Debye-Ang):
   XX=           -102.1207   YY=            -97.7630   ZZ=            -94.4588
   XY=            -14.5224   XZ=              7.2075   YZ=             -0.2943

 Normal termination of Gaussian 16 at Wed May  5 23:36:38 2021.
