 Gaussian 16, Revision A.03,
 Gaussian 16:  EM64L-G16RevA.03 25-Dec-2016

 -------------
 #p 6-31g* mp2
 -------------

 ------------------------------------------------------
 Input file generated by CHIRIPA (05-May-2021 14:57:26)
 ------------------------------------------------------
 Symbolic Z-matrix:
 Charge =  0 Multiplicity = 1

                         Standard orientation:
 ---------------------------------------------------------------------
 Center     Atomic      Atomic             Coordinates (Angstroms)
 Number     Number       Type             X           Y           Z
 ---------------------------------------------------------------------
      1          6           0       -4.627242   -1.711165    0.506770
      2          6           0       -4.863258   -0.792013   -0.520837
      3          6           0       -4.044697    0.331434   -0.670415
      4          6           0       -2.994369    0.505394    0.229496
      5          6           0       -2.733627   -0.392477    1.263485
      6          6           0       -3.565053   -1.508820    1.394087
      7          1           0       -5.268117   -2.581127    0.615595
      8          1           0       -5.687432   -0.946600   -1.211405
      9          1           0       -4.204830    1.058808   -1.456991
     10          1           0       -1.904294   -0.211439    1.936425
     11          1           0       -3.379393   -2.220990    2.193079
     12          7           0       -2.120986    1.690977    0.081189
     13          8           0       -1.202194    1.821493    0.887057
     14          8           0       -2.371758    2.467271   -0.838114
     15          6           0        1.086822   -1.175912   -1.440319
     16          6           0        1.277906    0.201247   -1.287211
     17          6           0        2.410861    0.692304   -0.631600
     18          6           0        3.336644   -0.226282   -0.139244
     19          6           0        3.174513   -1.604067   -0.276032
     20          6           0        2.034066   -2.072593   -0.935131
     21          1           0        0.203806   -1.548625   -1.950968
     22          1           0        0.543928    0.899952   -1.678532
     23          1           0        2.583718    1.753436   -0.499164
     24          1           0        3.923700   -2.276011    0.124753
     25          1           0        1.888280   -3.142638   -1.052580
     26          7           0        4.540018    0.281652    0.556669
     27          8           0        5.340842   -0.548359    0.981404
     28          8           0        4.659612    1.500162    0.664213
 ---------------------------------------------------------------------

 SCF Done:  E(RHF) =  -868.338788689     A.U. after   16 cycles
 E2 =    -0.2599863361D+01 EUMP2 =    -0.87093865205008D+03

 The electronic state is 1-A.
 Alpha  occ. eigenvalues --  -20.61670 -20.61634 -20.60254 -20.60232 -15.86670
 Alpha  occ. eigenvalues --  -15.85295 -11.31927 -11.30607 -11.28492 -11.28449
 Alpha  occ. eigenvalues --  -11.28189 -11.27460 -11.27432 -11.27233 -11.27063
 Alpha  occ. eigenvalues --  -11.26964 -11.26291 -11.26079  -1.60734  -1.59322
 Alpha  occ. eigenvalues --   -1.40279  -1.38875  -1.20091  -1.18783  -1.09507
 Alpha  occ. eigenvalues --   -1.08211  -1.05462  -1.04155  -0.96355  -0.95046
 Alpha  occ. eigenvalues --   -0.86862  -0.85581  -0.83179  -0.81859  -0.78245
 Alpha  occ. eigenvalues --   -0.76903  -0.72882  -0.72079  -0.71516  -0.71174
 Alpha  occ. eigenvalues --   -0.70643  -0.69925  -0.65731  -0.65448  -0.64437
 Alpha  occ. eigenvalues --   -0.64160  -0.62796  -0.61489  -0.55958  -0.54733
 Alpha  occ. eigenvalues --   -0.53818  -0.53537  -0.52520  -0.52244  -0.49660
 Alpha  occ. eigenvalues --   -0.49647  -0.48279  -0.48264  -0.45701  -0.44291
 Alpha  occ. eigenvalues --   -0.38078  -0.37079  -0.36800  -0.35724
 Alpha virt. eigenvalues --    0.04239   0.05615   0.10584   0.11877   0.15758
 Alpha virt. eigenvalues --    0.17105   0.20802   0.21931   0.26735   0.27588
 Alpha virt. eigenvalues --    0.27933   0.28810   0.30390   0.31479   0.31930

 Mulliken charges:
               1
     1  C   -0.170814
     2  C   -0.219261
     3  C   -0.173024
     4  C    0.154621
     5  C   -0.170513
     6  C   -0.219676
     7  H    0.227788
     8  H    0.225260
     9  H    0.276024
    10  H    0.279302
    11  H    0.226122
    12  N    0.485103
    13  O   -0.456086
    14  O   -0.462882
    15  C   -0.174763
    16  C   -0.218722
    17  C   -0.165942
    18  C    0.156963
    19  C   -0.172979
    20  C   -0.219685
    21  H    0.221202
    22  H    0.232878
    23  H    0.281460
    24  H    0.272828
    25  H    0.218786
    26  N    0.487999
    27  O   -0.463755
    28  O   -0.458235
 Sum of Mulliken charges =  -0.00000

 Dipole moment (field-independent basis, Debye):
    X=             -7.5172    Y=             -5.7871    Z=             -1.8179  Tot=              9.6594
 Quadrupole moment (field-independent basis, Debye-Ang):
   XX=           -113.9073   YY=           -104.1976   ZZ=           -101.7238
   XY=              4.3159   XZ=             -7.3794   YZ=             -2.2290

 Normal termination of Gaussian 16 at Fri May  7 12:41:41 2021.
