 Gaussian 16, Revision A.03,
 Gaussian 16:  EM64L-G16RevA.03 25-Dec-2016

 -------------
 #p 6-31g* mp2
 -------------

 ------------------------------------------------------
 Input file generated by CHIRIPA (05-May-2021 14:53:12)
 ------------------------------------------------------
 Symbolic Z-matrix:
 Charge =  0 Multiplicity = 1

                         Standard orientation:
 ---------------------------------------------------------------------
 Center     Atomic      Atomic             Coordinates (Angstroms)
 Number     Number       Type             X           Y           Z
 ---------------------------------------------------------------------
      1          6           0        3.326249   -0.569585   -0.208326
      2          6           0        3.128415   -1.694400    0.808353
      3          6           0        3.182083   -3.083290    0.171252
      4          1           0        2.554839   -0.647584   -0.986650
      5          1           0        4.293304   -0.705871   -0.711940
      6          1           0        2.162640   -1.555253    1.310880
      7          1           0        3.900269   -1.613599    1.584451
      8          1           0        4.149448   -3.247189   -0.314488
      9          1           0        2.401947   -3.188511   -0.589613
     10          1           0        3.038348   -3.872390    0.915914
     11          6           0        3.275187    0.824891    0.413412
     12          6           0        3.473021    1.949706   -0.603267
     13          6           0        3.419353    3.338596    0.033834
     14          1           0        2.308132    0.961177    0.917026
     15          1           0        4.046597    0.902890    1.191736
     16          1           0        2.701167    1.868905   -1.379365
     17          1           0        4.438796    1.810559   -1.105794
     18          1           0        4.199490    3.443817    0.794699
     19          1           0        2.451988    3.502495    0.519574
     20          1           0        3.563088    4.127696   -0.710828
     21          6           0       -1.560212   -2.379475   -0.442587
     22          6           0       -0.788515   -1.229129   -0.636780
     23          6           0       -1.342390    0.039176   -0.438859
     24          6           0       -2.677148    0.120669   -0.045069
     25          6           0       -3.471804   -1.006799    0.156499
     26          6           0       -2.897035   -2.264840   -0.047265
     27          1           0       -1.121832   -3.360739   -0.598606
     28          1           0        0.249944   -1.315130   -0.943785
     29          1           0       -0.767732    0.946192   -0.582059
     30          1           0       -4.504218   -0.889181    0.462613
     31          1           0       -3.498731   -3.156490    0.104296
     32          7           0       -3.274571    1.457934    0.167554
     33          8           0       -4.452836    1.502807    0.514417
     34          8           0       -2.553253    2.435888   -0.016682
 ---------------------------------------------------------------------

 SCF Done:  E(RHF) =  -669.535481815     A.U. after   15 cycles
 E2 =    -0.2092272925D+01 EUMP2 =    -0.67162775473946D+03

 The electronic state is 1-A.
 Alpha  occ. eigenvalues --  -20.60781 -20.60775 -15.85834 -11.31202 -11.27775
 Alpha  occ. eigenvalues --  -11.27770 -11.27505 -11.26781 -11.26753 -11.22435
 Alpha  occ. eigenvalues --  -11.22285 -11.22065 -11.22056 -11.21979 -11.21265
 Alpha  occ. eigenvalues --   -1.59856  -1.39410  -1.19374  -1.09159  -1.08764
 Alpha  occ. eigenvalues --   -1.04779  -1.04175  -0.96631  -0.95601  -0.87640
 Alpha  occ. eigenvalues --   -0.86176  -0.82436  -0.80248  -0.78937  -0.77487
 Alpha  occ. eigenvalues --   -0.72052  -0.71179  -0.70479  -0.65949  -0.65024
 Alpha  occ. eigenvalues --   -0.64712  -0.62148  -0.61514  -0.60011  -0.58219
 Alpha  occ. eigenvalues --   -0.55949  -0.55265  -0.53289  -0.53102  -0.53044
 Alpha  occ. eigenvalues --   -0.52871  -0.50571  -0.48817  -0.48808  -0.48538
 Alpha  occ. eigenvalues --   -0.47304  -0.46469  -0.46382  -0.44815  -0.44443
 Alpha  occ. eigenvalues --   -0.37348  -0.36376
 Alpha virt. eigenvalues --    0.05044   0.11211   0.16476   0.18175   0.22400
 Alpha virt. eigenvalues --    0.23568   0.25160   0.26344   0.26724   0.28498
 Alpha virt. eigenvalues --    0.29688   0.30399   0.31065   0.31464   0.32238

 Mulliken charges:
               1
     1  C   -0.301367
     2  C   -0.304164
     3  C   -0.475209
     4  H    0.139733
     5  H    0.154484
     6  H    0.154093
     7  H    0.157583
     8  H    0.159863
     9  H    0.144256
    10  H    0.163227
    11  C   -0.300508
    12  C   -0.300009
    13  C   -0.476916
    14  H    0.150353
    15  H    0.153661
    16  H    0.148785
    17  H    0.153244
    18  H    0.155845
    19  H    0.160164
    20  H    0.162994
    21  C   -0.172905
    22  C   -0.225693
    23  C   -0.174817
    24  C    0.158937
    25  C   -0.170914
    26  C   -0.218475
    27  H    0.226697
    28  H    0.234959
    29  H    0.275732
    30  H    0.275683
    31  H    0.223542
    32  N    0.488115
    33  O   -0.460357
    34  O   -0.460613
 Sum of Mulliken charges =  -0.00000

 Dipole moment (field-independent basis, Debye):
    X=              2.2734    Y=             -4.6369    Z=             -0.6426  Tot=              5.2041
 Quadrupole moment (field-independent basis, Debye-Ang):
   XX=           -100.4854   YY=            -96.2702   ZZ=            -95.3091
   XY=             15.2717   XZ=              1.1456   YZ=             -0.8961

 Normal termination of Gaussian 16 at Thu May  6 15:18:56 2021.
