 Gaussian 16, Revision A.03,
 Gaussian 16:  EM64L-G16RevA.03 25-Dec-2016

 -------------
 #p 6-31g* mp2
 -------------

 ------------------------------------------------------
 Input file generated by CHIRIPA (05-May-2021 14:53:13)
 ------------------------------------------------------
 Symbolic Z-matrix:
 Charge =  0 Multiplicity = 1

                         Standard orientation:
 ---------------------------------------------------------------------
 Center     Atomic      Atomic             Coordinates (Angstroms)
 Number     Number       Type             X           Y           Z
 ---------------------------------------------------------------------
      1          6           0       -4.488281   -0.083375   -0.129359
      2          6           0       -4.640536    1.437458   -0.086094
      3          6           0       -6.101205    1.886914   -0.133313
      4          1           0       -4.962113   -0.467088   -1.043248
      5          1           0       -5.035919   -0.523896    0.715288
      6          1           0       -4.091624    1.875070   -0.929780
      7          1           0       -4.166118    1.817614    0.827704
      8          1           0       -6.657834    1.477691    0.715982
      9          1           0       -6.582916    1.535474   -1.051488
     10          1           0       -6.186886    2.977553   -0.101289
     11          6           0       -3.033792   -0.548168   -0.082903
     12          6           0       -2.881537   -2.069001   -0.126169
     13          6           0       -1.420868   -2.518457   -0.078950
     14          1           0       -2.486153   -0.107647   -0.927550
     15          1           0       -2.559960   -0.164455    0.830985
     16          1           0       -3.355954   -2.449157   -1.039966
     17          1           0       -3.430448   -2.506613    0.717518
     18          1           0       -0.939156   -2.167017    0.839225
     19          1           0       -0.864239   -2.109234   -0.928244
     20          1           0       -1.335187   -3.609096   -0.110973
     21          6           0        3.191678    2.755497   -0.004538
     22          6           0        4.007672    1.941479   -0.797034
     23          6           0        3.876067    0.550221   -0.756670
     24          6           0        2.913815    0.004156    0.091370
     25          6           0        2.085925    0.788517    0.893033
     26          6           0        2.235095    2.177437    0.836483
     27          1           0        3.300735    3.835351   -0.042181
     28          1           0        4.751416    2.387646   -1.451117
     29          1           0        4.494640   -0.103491   -1.359535
     30          1           0        1.353475    0.314647    1.535203
     31          1           0        1.600006    2.807148    1.453063
     32          7           0        2.765192   -1.467470    0.142669
     33          8           0        1.909890   -1.923978    0.898112
     34          8           0        3.506820   -2.136556   -0.573538
 ---------------------------------------------------------------------

 SCF Done:  E(RHF) =  -669.535664070     A.U. after   15 cycles
 E2 =    -0.2091276386D+01 EUMP2 =    -0.67162694045582D+03

 The electronic state is 1-A.
 Alpha  occ. eigenvalues --  -20.60833 -20.60806 -15.85854 -11.31214 -11.27784
 Alpha  occ. eigenvalues --  -11.27780 -11.27526 -11.26799 -11.26789 -11.21583
 Alpha  occ. eigenvalues --  -11.21215 -11.21105 -11.21069 -11.20968 -11.19984
 Alpha  occ. eigenvalues --   -1.59882  -1.39438  -1.19387  -1.08784  -1.08157
 Alpha  occ. eigenvalues --   -1.04789  -1.03148  -0.95642  -0.95541  -0.86570
 Alpha  occ. eigenvalues --   -0.86187  -0.82456  -0.79234  -0.77961  -0.77494
 Alpha  occ. eigenvalues --   -0.72082  -0.71196  -0.70497  -0.65044  -0.64802
 Alpha  occ. eigenvalues --   -0.64788  -0.62138  -0.60548  -0.59000  -0.57177
 Alpha  occ. eigenvalues --   -0.55293  -0.54847  -0.53120  -0.52883  -0.52225
 Alpha  occ. eigenvalues --   -0.51985  -0.49520  -0.48842  -0.48830  -0.47541
 Alpha  occ. eigenvalues --   -0.46293  -0.45537  -0.45412  -0.44714  -0.43410
 Alpha  occ. eigenvalues --   -0.37367  -0.36391
 Alpha virt. eigenvalues --    0.05014   0.11258   0.16489   0.21197   0.23052
 Alpha virt. eigenvalues --    0.24466   0.26410   0.27263   0.27635   0.28044
 Alpha virt. eigenvalues --    0.28876   0.30731   0.31626   0.31991   0.32509

 Mulliken charges:
               1
     1  C   -0.297623
     2  C   -0.298909
     3  C   -0.475397
     4  H    0.150104
     5  H    0.149646
     6  H    0.150479
     7  H    0.148834
     8  H    0.155504
     9  H    0.155740
    10  H    0.158597
    11  C   -0.296428
    12  C   -0.301838
    13  C   -0.472048
    14  H    0.147544
    15  H    0.144123
    16  H    0.149454
    17  H    0.149942
    18  H    0.166276
    19  H    0.150681
    20  H    0.162359
    21  C   -0.170770
    22  C   -0.218587
    23  C   -0.171063
    24  C    0.158204
    25  C   -0.170109
    26  C   -0.218485
    27  H    0.225710
    28  H    0.223506
    29  H    0.275641
    30  H    0.275369
    31  H    0.223687
    32  N    0.489677
    33  O   -0.459781
    34  O   -0.460040
 Sum of Mulliken charges =  -0.00000

 Dipole moment (field-independent basis, Debye):
    X=              0.6917    Y=              5.0917    Z=             -0.1518  Tot=              5.1407
 Quadrupole moment (field-independent basis, Debye-Ang):
   XX=            -90.9661   YY=            -95.3179   ZZ=            -91.9911
   XY=             15.4374   XZ=             -3.4983   YZ=              0.7336

 Normal termination of Gaussian 16 at Thu May  6 10:29:01 2021.
