 Gaussian 16, Revision A.03,
 Gaussian 16:  EM64L-G16RevA.03 25-Dec-2016

 -------------
 #p 6-31g* mp2
 -------------

 ------------------------------------------------------
 Input file generated by CHIRIPA (05-May-2021 14:53:16)
 ------------------------------------------------------
 Symbolic Z-matrix:
 Charge =  0 Multiplicity = 1

                         Standard orientation:
 ---------------------------------------------------------------------
 Center     Atomic      Atomic             Coordinates (Angstroms)
 Number     Number       Type             X           Y           Z
 ---------------------------------------------------------------------
      1          6           0        2.159859    1.259632   -0.340040
      2          6           0        1.471105    2.395511    0.417180
      3          6           0        0.417165    3.114153   -0.425767
      4          1           0        2.627735    1.663700   -1.248206
      5          1           0        1.401416    0.537971   -0.673753
      6          1           0        2.230771    3.114107    0.750561
      7          1           0        1.004977    1.988725    1.323748
      8          1           0       -0.361706    2.414943   -0.746805
      9          1           0        0.871053    3.546720   -1.323249
     10          1           0       -0.062643    3.922371    0.134972
     11          6           0        3.216109    0.531623    0.489457
     12          6           0        3.904863   -0.604256   -0.267763
     13          6           0        4.958803   -1.322898    0.575184
     14          1           0        3.974553    1.253284    0.823170
     15          1           0        2.748233    0.127555    1.397623
     16          1           0        4.370991   -0.197470   -1.174331
     17          1           0        3.145197   -1.322852   -0.601144
     18          1           0        4.504916   -1.755465    1.472666
     19          1           0        5.737674   -0.623688    0.896222
     20          1           0        5.438611   -2.131115    0.014445
     21          6           0       -3.516540    1.331776    0.423683
     22          6           0       -2.874160    1.203580   -0.812211
     23          6           0       -2.086797    0.082279   -1.090229
     24          6           0       -1.963041   -0.896105   -0.104969
     25          6           0       -2.590488   -0.797184    1.135924
     26          6           0       -3.372907    0.332746    1.392098
     27          1           0       -4.126262    2.206182    0.631169
     28          1           0       -2.983917    1.977870   -1.566183
     29          1           0       -1.578394   -0.042382   -2.038597
     30          1           0       -2.462221   -1.585577    1.867636
     31          1           0       -3.870626    0.429640    2.352792
     32          7           0       -1.132112   -2.087745   -0.387731
     33          8           0       -1.039001   -2.935736    0.497072
     34          8           0       -0.589675   -2.151195   -1.488809
 ---------------------------------------------------------------------

 SCF Done:  E(RHF) =  -669.535045191     A.U. after   15 cycles
 E2 =    -0.2093786283D+01 EUMP2 =    -0.67162883147429D+03

 The electronic state is 1-A.
 Alpha  occ. eigenvalues --  -20.60951 -20.60943 -15.85986 -11.31340 -11.27883
 Alpha  occ. eigenvalues --  -11.27880 -11.27608 -11.26902 -11.26879 -11.21537
 Alpha  occ. eigenvalues --  -11.21127 -11.21105 -11.21012 -11.20953 -11.20510
 Alpha  occ. eigenvalues --   -1.60013  -1.39567  -1.19510  -1.08898  -1.08120
 Alpha  occ. eigenvalues --   -1.04917  -1.03228  -0.95741  -0.95704  -0.86744
 Alpha  occ. eigenvalues --   -0.86291  -0.82572  -0.79320  -0.77907  -0.77612
 Alpha  occ. eigenvalues --   -0.72201  -0.71333  -0.70594  -0.65157  -0.64898
 Alpha  occ. eigenvalues --   -0.64757  -0.62252  -0.60646  -0.59101  -0.57313
 Alpha  occ. eigenvalues --   -0.55388  -0.55100  -0.53230  -0.52988  -0.52406
 Alpha  occ. eigenvalues --   -0.52103  -0.49648  -0.48962  -0.48961  -0.47627
 Alpha  occ. eigenvalues --   -0.46344  -0.45478  -0.45395  -0.44876  -0.43487
 Alpha  occ. eigenvalues --   -0.37466  -0.36393
 Alpha virt. eigenvalues --    0.04885   0.11052   0.16310   0.21138   0.23062
 Alpha virt. eigenvalues --    0.24627   0.26421   0.27096   0.27640   0.28356
 Alpha virt. eigenvalues --    0.28714   0.30767   0.31745   0.32047   0.32274

 Mulliken charges:
               1
     1  C   -0.301192
     2  C   -0.297662
     3  C   -0.482203
     4  H    0.148821
     5  H    0.152206
     6  H    0.151355
     7  H    0.150911
     8  H    0.158055
     9  H    0.153269
    10  H    0.155031
    11  C   -0.298076
    12  C   -0.302768
    13  C   -0.475598
    14  H    0.147157
    15  H    0.149633
    16  H    0.149690
    17  H    0.164360
    18  H    0.156315
    19  H    0.151741
    20  H    0.161200
    21  C   -0.170031
    22  C   -0.217894
    23  C   -0.172767
    24  C    0.159643
    25  C   -0.171447
    26  C   -0.218304
    27  H    0.226601
    28  H    0.226255
    29  H    0.277227
    30  H    0.275942
    31  H    0.224155
    32  N    0.487991
    33  O   -0.459341
    34  O   -0.460275
 Sum of Mulliken charges =  -0.00000

 Dipole moment (field-independent basis, Debye):
    X=             -3.0641    Y=              4.0209    Z=              0.9858  Tot=              5.1505
 Quadrupole moment (field-independent basis, Debye-Ang):
   XX=            -83.7745   YY=           -102.6359   ZZ=            -91.0718
   XY=             -4.7809   XZ=             -3.5183   YZ=             -3.1101

 Normal termination of Gaussian 16 at Wed May  5 21:58:44 2021.
