 Gaussian 16, Revision A.03,
 Gaussian 16:  EM64L-G16RevA.03 25-Dec-2016

 -------------
 #p 6-31g* mp2
 -------------

 ------------------------------------------------------
 Input file generated by CHIRIPA (05-May-2021 14:53:17)
 ------------------------------------------------------
 Symbolic Z-matrix:
 Charge =  0 Multiplicity = 1

                         Standard orientation:
 ---------------------------------------------------------------------
 Center     Atomic      Atomic             Coordinates (Angstroms)
 Number     Number       Type             X           Y           Z
 ---------------------------------------------------------------------
      1          6           0       -4.641140   -0.370954   -0.130908
      2          6           0       -4.489235   -1.732441    0.548255
      3          6           0       -5.716581   -2.625377    0.363644
      4          1           0       -5.528847    0.135635    0.271942
      5          1           0       -4.827450   -0.522619   -1.203140
      6          1           0       -4.301890   -1.578220    1.618644
      7          1           0       -3.601677   -2.235767    0.143879
      8          1           0       -5.903262   -2.808637   -0.699449
      9          1           0       -6.607453   -2.147355    0.783696
     10          1           0       -5.586521   -3.593598    0.857092
     11          6           0       -3.422259    0.533037    0.044753
     12          6           0       -3.574164    1.894524   -0.634410
     13          6           0       -2.346817    2.787460   -0.449799
     14          1           0       -3.235948    0.684702    1.116985
     15          1           0       -2.534551    0.026448   -0.358097
     16          1           0       -4.461722    2.397850   -0.230034
     17          1           0       -3.761508    1.740303   -1.704799
     18          1           0       -1.455945    2.309438   -0.869851
     19          1           0       -2.160137    2.970720    0.613294
     20          1           0       -2.476877    3.755681   -0.943247
     21          6           0        1.305707    1.627139    0.361901
     22          6           0        2.609801    1.925657    0.770249
     23          6           0        3.639418    0.996608    0.593321
     24          6           0        3.328042   -0.226741    0.001920
     25          6           0        2.038752   -0.553634   -0.415409
     26          6           0        1.024840    0.390625   -0.228583
     27          1           0        0.511975    2.354754    0.503188
     28          1           0        2.830843    2.885151    1.229112
     29          1           0        4.657838    1.201705    0.900200
     30          1           0        1.849146   -1.518506   -0.869819
     31          1           0        0.012989    0.156067   -0.546681
     32          7           0        4.409739   -1.218334   -0.190624
     33          8           0        4.109462   -2.289013   -0.714188
     34          8           0        5.537366   -0.906091    0.185669
 ---------------------------------------------------------------------

 SCF Done:  E(RHF) =  -669.534916432     A.U. after   15 cycles
 E2 =    -0.2092379830D+01 EUMP2 =    -0.67162729626221D+03

 The electronic state is 1-A.
 Alpha  occ. eigenvalues --  -20.60693 -20.60688 -15.85746 -11.31087 -11.27663
 Alpha  occ. eigenvalues --  -11.27657 -11.27308 -11.26647 -11.26631 -11.22721
 Alpha  occ. eigenvalues --  -11.22505 -11.22491 -11.22262 -11.22174 -11.21573
 Alpha  occ. eigenvalues --   -1.59769  -1.39323  -1.19255  -1.09385  -1.08646
 Alpha  occ. eigenvalues --   -1.04663  -1.04458  -0.96948  -0.95485  -0.87968
 Alpha  occ. eigenvalues --   -0.86060  -0.82326  -0.80560  -0.79167  -0.77381
 Alpha  occ. eigenvalues --   -0.71964  -0.71092  -0.70363  -0.66046  -0.64906
 Alpha  occ. eigenvalues --   -0.64670  -0.62087  -0.61774  -0.60306  -0.58553
 Alpha  occ. eigenvalues --   -0.56262  -0.55200  -0.53593  -0.53291  -0.52975
 Alpha  occ. eigenvalues --   -0.52762  -0.50888  -0.48834  -0.48725  -0.48717
 Alpha  occ. eigenvalues --   -0.47562  -0.46696  -0.46587  -0.44735  -0.44704
 Alpha  occ. eigenvalues --   -0.37216  -0.36268
 Alpha virt. eigenvalues --    0.05151   0.11331   0.16639   0.19392   0.22410
 Alpha virt. eigenvalues --    0.23742   0.24224   0.25898   0.26467   0.28365
 Alpha virt. eigenvalues --    0.29513   0.29902   0.30868   0.30959   0.31672

 Mulliken charges:
               1
     1  C   -0.298621
     2  C   -0.300245
     3  C   -0.476362
     4  H    0.152581
     5  H    0.151540
     6  H    0.153311
     7  H    0.151219
     8  H    0.156303
     9  H    0.156251
    10  H    0.162911
    11  C   -0.302901
    12  C   -0.300002
    13  C   -0.484978
    14  H    0.151804
    15  H    0.144029
    16  H    0.157125
    17  H    0.156009
    18  H    0.151205
    19  H    0.154052
    20  H    0.167609
    21  C   -0.176937
    22  C   -0.219774
    23  C   -0.170870
    24  C    0.158352
    25  C   -0.172384
    26  C   -0.226867
    27  H    0.234549
    28  H    0.223215
    29  H    0.275125
    30  H    0.275357
    31  H    0.230881
    32  N    0.488070
    33  O   -0.460805
    34  O   -0.460752
 Sum of Mulliken charges =  -0.00000

 Dipole moment (field-independent basis, Debye):
    X=             -4.1408    Y=              3.5193    Z=              0.6870  Tot=              5.4776
 Quadrupole moment (field-independent basis, Debye-Ang):
   XX=           -117.7039   YY=            -94.8353   ZZ=            -93.8694
   XY=             14.1359   XZ=              3.4874   YZ=              1.6114

 Normal termination of Gaussian 16 at Thu May  6 02:46:16 2021.
