 Gaussian 16, Revision A.03,
 Gaussian 16:  EM64L-G16RevA.03 25-Dec-2016

 -------------
 #p 6-31g* mp2
 -------------

 ------------------------------------------------------
 Input file generated by CHIRIPA (05-May-2021 14:53:16)
 ------------------------------------------------------
 Symbolic Z-matrix:
 Charge =  0 Multiplicity = 1

                         Standard orientation:
 ---------------------------------------------------------------------
 Center     Atomic      Atomic             Coordinates (Angstroms)
 Number     Number       Type             X           Y           Z
 ---------------------------------------------------------------------
      1          6           0        4.555288   -0.500400   -0.268002
      2          6           0        5.068731   -1.301500    0.928911
      3          6           0        5.979797   -2.458846    0.518664
      4          1           0        4.012801   -1.173389   -0.946042
      5          1           0        5.412439   -0.110539   -0.834303
      6          1           0        4.210853   -1.688575    1.493566
      7          1           0        5.609895   -0.626489    1.604276
      8          1           0        6.853781   -2.086816   -0.025713
      9          1           0        5.446791   -3.154937   -0.137052
     10          1           0        6.335395   -3.018055    1.389695
     11          6           0        3.643183    0.660007    0.126011
     12          6           0        3.129740    1.461107   -1.070902
     13          6           0        2.218674    2.618453   -0.660655
     14          1           0        2.786032    0.270146    0.692312
     15          1           0        4.185670    1.332996    0.804051
     16          1           0        2.588576    0.786096   -1.746267
     17          1           0        3.987618    1.848182   -1.635557
     18          1           0        2.751680    3.314544   -0.004939
     19          1           0        1.344690    2.246423   -0.116278
     20          1           0        1.863076    3.177662   -1.531686
     21          6           0       -1.861038    1.994072    0.636387
     22          6           0       -2.926541    1.599796    1.452335
     23          6           0       -3.676710    0.462112    1.140137
     24          6           0       -3.332218   -0.261154   -0.000696
     25          6           0       -2.276327    0.106109   -0.833464
     26          6           0       -1.539898    1.247287   -0.501902
     27          1           0       -1.283625    2.879209    0.886432
     28          1           0       -3.178212    2.177839    2.336968
     29          1           0       -4.506614    0.134321    1.754329
     30          1           0       -2.049358   -0.490359   -1.708752
     31          1           0       -0.712941    1.551121   -1.137411
     32          7           0       -4.119116   -1.467418   -0.341456
     33          8           0       -3.795432   -2.087523   -1.352068
     34          8           0       -5.044670   -1.769942    0.408520
 ---------------------------------------------------------------------

 SCF Done:  E(RHF) =  -669.535405645     A.U. after   15 cycles
 E2 =    -0.2091446718D+01 EUMP2 =    -0.67162685236287D+03

 The electronic state is 1-A.
 Alpha  occ. eigenvalues --  -20.60761 -20.60756 -15.85814 -11.31179 -11.27746
 Alpha  occ. eigenvalues --  -11.27735 -11.27472 -11.26758 -11.26702 -11.22459
 Alpha  occ. eigenvalues --  -11.22214 -11.22015 -11.21952 -11.21828 -11.21328
 Alpha  occ. eigenvalues --   -1.59837  -1.39390  -1.19348  -1.09026  -1.08741
 Alpha  occ. eigenvalues --   -1.04750  -1.04165  -0.96636  -0.95577  -0.87664
 Alpha  occ. eigenvalues --   -0.86143  -0.82407  -0.80244  -0.78787  -0.77459
 Alpha  occ. eigenvalues --   -0.72033  -0.71160  -0.70453  -0.65695  -0.64998
 Alpha  occ. eigenvalues --   -0.64760  -0.62177  -0.61478  -0.60026  -0.58212
 Alpha  occ. eigenvalues --   -0.55933  -0.55237  -0.53354  -0.53136  -0.53005
 Alpha  occ. eigenvalues --   -0.52804  -0.50555  -0.48789  -0.48788  -0.48545
 Alpha  occ. eigenvalues --   -0.47260  -0.46340  -0.46231  -0.44796  -0.44396
 Alpha  occ. eigenvalues --   -0.37321  -0.36348
 Alpha virt. eigenvalues --    0.05067   0.11187   0.16560   0.20112   0.22586
 Alpha virt. eigenvalues --    0.23783   0.25875   0.26325   0.26835   0.27787
 Alpha virt. eigenvalues --    0.28899   0.30366   0.30928   0.31214   0.31803

 Mulliken charges:
               1
     1  C   -0.298940
     2  C   -0.300258
     3  C   -0.476151
     4  H    0.151015
     5  H    0.150435
     6  H    0.153143
     7  H    0.151990
     8  H    0.155431
     9  H    0.156544
    10  H    0.161619
    11  C   -0.299308
    12  C   -0.299619
    13  C   -0.484893
    14  H    0.150820
    15  H    0.150595
    16  H    0.150860
    17  H    0.156213
    18  H    0.160143
    19  H    0.150160
    20  H    0.159630
    21  C   -0.173184
    22  C   -0.218564
    23  C   -0.171140
    24  C    0.158599
    25  C   -0.172238
    26  C   -0.222740
    27  H    0.227329
    28  H    0.223474
    29  H    0.275556
    30  H    0.275493
    31  H    0.230845
    32  N    0.488078
    33  O   -0.460505
    34  O   -0.460432
 Sum of Mulliken charges =  -0.00000

 Dipole moment (field-independent basis, Debye):
    X=              2.9439    Y=              4.2165    Z=              1.2208  Tot=              5.2854
 Quadrupole moment (field-independent basis, Debye-Ang):
   XX=           -111.2495   YY=            -97.9272   ZZ=            -91.8030
   XY=            -14.4365   XZ=             -6.6010   YZ=              0.3590

 Normal termination of Gaussian 16 at Thu May  6 22:01:55 2021.
