 Gaussian 16, Revision A.03,
 Gaussian 16:  EM64L-G16RevA.03 25-Dec-2016

 -------------
 #p 6-31g* mp2
 -------------

 ------------------------------------------------------
 Input file generated by CHIRIPA (05-May-2021 14:53:15)
 ------------------------------------------------------
 Symbolic Z-matrix:
 Charge =  0 Multiplicity = 1

                         Standard orientation:
 ---------------------------------------------------------------------
 Center     Atomic      Atomic             Coordinates (Angstroms)
 Number     Number       Type             X           Y           Z
 ---------------------------------------------------------------------
      1          6           0       -3.916536   -0.008601    0.394751
      2          6           0       -3.107834   -1.100512    1.095976
      3          6           0       -1.701861   -0.639524    1.481363
      4          1           0       -3.376831    0.318110   -0.504650
      5          1           0       -3.984848    0.867870    1.053939
      6          1           0       -3.042244   -1.975174    0.436218
      7          1           0       -3.649620   -1.424795    1.993709
      8          1           0       -1.750163    0.218774    2.159296
      9          1           0       -1.139336   -0.334732    0.592956
     10          1           0       -1.141291   -1.435582    1.981276
     11          6           0       -5.324305   -0.454305    0.003264
     12          6           0       -6.133007    0.637606   -0.697961
     13          6           0       -7.538980    0.176618   -1.083348
     14          1           0       -5.255993   -1.330776   -0.655924
     15          1           0       -5.864011   -0.781016    0.902665
     16          1           0       -5.591221    0.961889   -1.595694
     17          1           0       -6.198598    1.512268   -0.038203
     18          1           0       -8.101506   -0.128174   -0.194941
     19          1           0       -7.490678   -0.681679   -1.761281
     20          1           0       -8.099550    0.972676   -1.583261
     21          6           0        2.428280    2.384221    0.183932
     22          6           0        3.825383    2.339680    0.132542
     23          6           0        4.490588    1.124425   -0.055094
     24          6           0        3.723919   -0.032193   -0.188287
     25          6           0        2.330736   -0.020341   -0.141491
     26          6           0        1.686723    1.206146    0.046993
     27          1           0        1.919764    3.332622    0.330021
     28          1           0        4.403860    3.253005    0.238590
     29          1           0        5.571106    1.061245   -0.098766
     30          1           0        1.781210   -0.947479   -0.250367
     31          1           0        0.601602    1.237729    0.086495
     32          7           0        4.416925   -1.324675   -0.387377
     33          8           0        3.718584   -2.329566   -0.502053
     34          8           0        5.645321   -1.308356   -0.424980
 ---------------------------------------------------------------------

 SCF Done:  E(RHF) =  -669.535475251     A.U. after   15 cycles
 E2 =    -0.2090957561D+01 EUMP2 =    -0.67162643281180D+03

 The electronic state is 1-A.
 Alpha  occ. eigenvalues --  -20.60710 -20.60705 -15.85762 -11.31112 -11.27682
 Alpha  occ. eigenvalues --  -11.27662 -11.27415 -11.26700 -11.26643 -11.22238
 Alpha  occ. eigenvalues --  -11.22002 -11.21999 -11.21986 -11.21819 -11.21385
 Alpha  occ. eigenvalues --   -1.59786  -1.39340  -1.19281  -1.08969  -1.08680
 Alpha  occ. eigenvalues --   -1.04683  -1.04086  -0.96558  -0.95518  -0.87582
 Alpha  occ. eigenvalues --   -0.86079  -0.82354  -0.80158  -0.78767  -0.77398
 Alpha  occ. eigenvalues --   -0.71981  -0.71108  -0.70393  -0.65602  -0.64934
 Alpha  occ. eigenvalues --   -0.64698  -0.62094  -0.61443  -0.59915  -0.58150
 Alpha  occ. eigenvalues --   -0.55868  -0.55181  -0.53247  -0.53109  -0.53000
 Alpha  occ. eigenvalues --   -0.52651  -0.50499  -0.48745  -0.48737  -0.48454
 Alpha  occ. eigenvalues --   -0.47176  -0.46314  -0.46218  -0.44749  -0.44324
 Alpha  occ. eigenvalues --   -0.37265  -0.36279
 Alpha virt. eigenvalues --    0.05129   0.11368   0.16614   0.20063   0.22524
 Alpha virt. eigenvalues --    0.23772   0.25336   0.26355   0.27108   0.28261
 Alpha virt. eigenvalues --    0.29049   0.30323   0.31146   0.31471   0.32261

 Mulliken charges:
               1
     1  C   -0.298680
     2  C   -0.299801
     3  C   -0.480166
     4  H    0.146863
     5  H    0.148835
     6  H    0.155699
     7  H    0.155692
     8  H    0.155996
     9  H    0.145177
    10  H    0.167604
    11  C   -0.298759
    12  C   -0.299973
    13  C   -0.476032
    14  H    0.151444
    15  H    0.151188
    16  H    0.151688
    17  H    0.151600
    18  H    0.155951
    19  H    0.156285
    20  H    0.161044
    21  C   -0.171443
    22  C   -0.218529
    23  C   -0.171235
    24  C    0.158542
    25  C   -0.172481
    26  C   -0.221991
    27  H    0.225559
    28  H    0.223028
    29  H    0.275285
    30  H    0.275516
    31  H    0.229320
    32  N    0.488146
    33  O   -0.460615
    34  O   -0.460755
 Sum of Mulliken charges =  -0.00000

 Dipole moment (field-independent basis, Debye):
    X=             -2.6429    Y=              4.4923    Z=              0.7596  Tot=              5.2672
 Quadrupole moment (field-independent basis, Debye-Ang):
   XX=           -109.5474   YY=            -94.2981   ZZ=            -95.0861
   XY=             19.4747   XZ=              2.5151   YZ=             -0.6301

 Normal termination of Gaussian 16 at Wed May  5 15:36:38 2021.
