 Gaussian 16, Revision A.03,
 Gaussian 16:  EM64L-G16RevA.03 25-Dec-2016

 -------------
 #p 6-31g* mp2
 -------------

 ------------------------------------------------------
 Input file generated by CHIRIPA (05-May-2021 14:53:14)
 ------------------------------------------------------
 Symbolic Z-matrix:
 Charge =  0 Multiplicity = 1

                         Standard orientation:
 ---------------------------------------------------------------------
 Center     Atomic      Atomic             Coordinates (Angstroms)
 Number     Number       Type             X           Y           Z
 ---------------------------------------------------------------------
      1          6           0        2.471502    1.135248   -0.288891
      2          6           0        1.281305    1.550203   -1.154470
      3          6           0        1.025640    3.057367   -1.124664
      4          1           0        2.294260    1.458132    0.746134
      5          1           0        3.369293    1.667258   -0.632885
      6          1           0        0.386306    1.016523   -0.809829
      7          1           0        1.461315    1.226125   -2.187516
      8          1           0        1.901663    3.603979   -1.488532
      9          1           0        0.820546    3.393186   -0.103017
     10          1           0        0.170515    3.331956   -1.750142
     11          6           0        2.739693   -0.368554   -0.308410
     12          6           0        3.929891   -0.783510    0.557169
     13          6           0        4.185556   -2.290673    0.527364
     14          1           0        1.841903   -0.900565    0.035584
     15          1           0        2.916935   -0.691438   -1.343435
     16          1           0        3.749881   -0.459431    1.590216
     17          1           0        4.824890   -0.249829    0.212528
     18          1           0        4.390650   -2.626492   -0.494283
     19          1           0        3.309533   -2.837285    0.891232
     20          1           0        5.040680   -2.565263    1.152841
     21          6           0       -2.383335   -2.194931   -1.395275
     22          6           0       -2.108174   -2.468319   -0.051375
     23          6           0       -1.913742   -1.426003    0.859845
     24          6           0       -2.002008   -0.116245    0.390767
     25          6           0       -2.274666    0.188351   -0.941963
     26          6           0       -2.465558   -0.869804   -1.835504
     27          1           0       -2.532998   -3.010778   -2.096266
     28          1           0       -2.043732   -3.496459    0.293330
     29          1           0       -1.699407   -1.609227    1.905745
     30          1           0       -2.332722    1.223483   -1.255889
     31          1           0       -2.679113   -0.654508   -2.878618
     32          7           0       -1.798045    0.995592    1.346077
     33          8           0       -1.881028    2.140852    0.907751
     34          8           0       -1.559059    0.700737    2.515087
 ---------------------------------------------------------------------

 SCF Done:  E(RHF) =  -669.534865452     A.U. after   15 cycles
 E2 =    -0.2094627636D+01 EUMP2 =    -0.67162949308800D+03

 The electronic state is 1-A.
 Alpha  occ. eigenvalues --  -20.60957 -20.60927 -15.85961 -11.31275 -11.27873
 Alpha  occ. eigenvalues --  -11.27835 -11.27589 -11.26860 -11.26839 -11.21431
 Alpha  occ. eigenvalues --  -11.21186 -11.21164 -11.21035 -11.20991 -11.20376
 Alpha  occ. eigenvalues --   -1.60003  -1.39557  -1.19473  -1.08869  -1.08143
 Alpha  occ. eigenvalues --   -1.04864  -1.03218  -0.95727  -0.95631  -0.86666
 Alpha  occ. eigenvalues --   -0.86264  -0.82537  -0.79307  -0.77975  -0.77587
 Alpha  occ. eigenvalues --   -0.72189  -0.71354  -0.70570  -0.65129  -0.64868
 Alpha  occ. eigenvalues --   -0.64749  -0.62214  -0.60606  -0.59055  -0.57285
 Alpha  occ. eigenvalues --   -0.55359  -0.54921  -0.53255  -0.52945  -0.52339
 Alpha  occ. eigenvalues --   -0.52079  -0.49574  -0.48955  -0.48942  -0.47623
 Alpha  occ. eigenvalues --   -0.46349  -0.45524  -0.45421  -0.44874  -0.43476
 Alpha  occ. eigenvalues --   -0.37383  -0.36408
 Alpha virt. eigenvalues --    0.04905   0.11124   0.16392   0.21162   0.23025
 Alpha virt. eigenvalues --    0.24352   0.26778   0.26866   0.27716   0.27743
 Alpha virt. eigenvalues --    0.28945   0.30838   0.31651   0.31808   0.32053

 Mulliken charges:
               1
     1  C   -0.299801
     2  C   -0.305226
     3  C   -0.473322
     4  H    0.156200
     5  H    0.148631
     6  H    0.151953
     7  H    0.145333
     8  H    0.149963
     9  H    0.171489
    10  H    0.153960
    11  C   -0.297605
    12  C   -0.299955
    13  C   -0.474954
    14  H    0.146973
    15  H    0.146614
    16  H    0.154988
    17  H    0.151984
    18  H    0.153476
    19  H    0.152377
    20  H    0.160383
    21  C   -0.170358
    22  C   -0.218323
    23  C   -0.171935
    24  C    0.157759
    25  C   -0.173569
    26  C   -0.216203
    27  H    0.226240
    28  H    0.223985
    29  H    0.275817
    30  H    0.277058
    31  H    0.224170
    32  N    0.490415
    33  O   -0.458761
    34  O   -0.459753
 Sum of Mulliken charges =  -0.00000

 Dipole moment (field-independent basis, Debye):
    X=             -0.8612    Y=             -3.8596    Z=             -3.2497  Tot=              5.1185
 Quadrupole moment (field-independent basis, Debye-Ang):
   XX=            -92.4116   YY=            -92.9753   ZZ=            -94.4876
   XY=              8.0323   XZ=              6.9899   YZ=             -3.5687

 Normal termination of Gaussian 16 at Thu May  6 01:02:50 2021.
