 Gaussian 16, Revision A.03,
 Gaussian 16:  EM64L-G16RevA.03 25-Dec-2016

 -------------
 #p 6-31g* mp2
 -------------

 ------------------------------------------------------
 Input file generated by CHIRIPA (05-May-2021 14:57:27)
 ------------------------------------------------------
 Symbolic Z-matrix:
 Charge =  0 Multiplicity = 1

                         Standard orientation:
 ---------------------------------------------------------------------
 Center     Atomic      Atomic             Coordinates (Angstroms)
 Number     Number       Type             X           Y           Z
 ---------------------------------------------------------------------
      1          6           0        2.520896    2.605911    0.458715
      2          6           0        3.313765    1.866521    1.342560
      3          6           0        3.689062    0.555828    1.033069
      4          6           0        3.251780    0.013352   -0.174323
      5          6           0        2.461075    0.724524   -1.075605
      6          6           0        2.097827    2.033562   -0.745424
      7          1           0        2.234037    3.623446    0.707171
      8          1           0        3.643785    2.308447    2.278420
      9          1           0        4.302212   -0.039084    1.699059
     10          1           0        2.147462    0.256928   -2.001034
     11          1           0        1.482005    2.605424   -1.433743
     12          7           0        3.642711   -1.373343   -0.512919
     13          8           0        3.244492   -1.828416   -1.582950
     14          8           0        4.339941   -1.978905    0.298132
     15          6           0       -0.857109   -0.932976    0.795507
     16          6           0       -1.931711   -1.149692    1.664292
     17          6           0       -3.227105   -0.770822    1.299653
     18          6           0       -3.412628   -0.175086    0.053069
     19          6           0       -2.362415    0.054168   -0.834503
     20          6           0       -1.075507   -0.332796   -0.448923
     21          1           0        0.145888   -1.230436    1.086901
     22          1           0       -1.765067   -1.615593    2.631355
     23          1           0       -4.077060   -0.926830    1.952840
     24          1           0       -2.559788    0.520783   -1.791964
     25          1           0       -0.242847   -0.163258   -1.125666
     26          7           0       -4.779513    0.230291   -0.344042
     27          8           0       -4.916572    0.753295   -1.447817
     28          8           0       -5.687935    0.017347    0.455996
 ---------------------------------------------------------------------

 SCF Done:  E(RHF) =  -868.337032005     A.U. after   16 cycles
 E2 =    -0.2601702926D+01 EUMP2 =    -0.87093873493114D+03

 The electronic state is 1-A.
 Alpha  occ. eigenvalues --  -20.61815 -20.61807 -20.60854 -20.60847 -15.86871
 Alpha  occ. eigenvalues --  -15.85906 -11.32330 -11.31242 -11.28892 -11.28813
 Alpha  occ. eigenvalues --  -11.28485 -11.27849 -11.27821 -11.27795 -11.27794
 Alpha  occ. eigenvalues --  -11.27494 -11.26790 -11.26773  -1.60899  -1.59930
 Alpha  occ. eigenvalues --   -1.40445  -1.39485  -1.20471  -1.19405  -1.09816
 Alpha  occ. eigenvalues --   -1.08794  -1.05874  -1.04810  -0.96651  -0.95637
 Alpha  occ. eigenvalues --   -0.87244  -0.86206  -0.83473  -0.82480  -0.78545
 Alpha  occ. eigenvalues --   -0.77543  -0.73065  -0.72258  -0.72123  -0.71512
 Alpha  occ. eigenvalues --   -0.71254  -0.70489  -0.66092  -0.65831  -0.65053
 Alpha  occ. eigenvalues --   -0.64850  -0.63206  -0.62159  -0.56274  -0.55279
 Alpha  occ. eigenvalues --   -0.54242  -0.53926  -0.53117  -0.52844  -0.49837
 Alpha  occ. eigenvalues --   -0.49828  -0.48884  -0.48878  -0.45824  -0.44897
 Alpha  occ. eigenvalues --   -0.38406  -0.37602  -0.37243  -0.36370
 Alpha virt. eigenvalues --    0.03940   0.05001   0.10080   0.11240   0.15438
 Alpha virt. eigenvalues --    0.16536   0.19876   0.21606   0.25350   0.27035
 Alpha virt. eigenvalues --    0.27777   0.28422   0.30138   0.30650   0.31929

 Mulliken charges:
               1
     1  C   -0.169510
     2  C   -0.217265
     3  C   -0.174144
     4  C    0.156562
     5  C   -0.184981
     6  C   -0.214402
     7  H    0.231112
     8  H    0.227742
     9  H    0.278142
    10  H    0.274830
    11  H    0.227428
    12  N    0.486555
    13  O   -0.459371
    14  O   -0.457268
    15  C   -0.171257
    16  C   -0.219155
    17  C   -0.171373
    18  C    0.158682
    19  C   -0.174160
    20  C   -0.215548
    21  H    0.227254
    22  H    0.224157
    23  H    0.275498
    24  H    0.273208
    25  H    0.220904
    26  N    0.488060
    27  O   -0.461521
    28  O   -0.460179
 Sum of Mulliken charges =  -0.00000

 Dipole moment (field-independent basis, Debye):
    X=              3.6944    Y=              3.5925    Z=              2.7358  Tot=              5.8343
 Quadrupole moment (field-independent basis, Debye-Ang):
   XX=           -145.6195   YY=           -104.3147   ZZ=            -97.8422
   XY=             20.9612   XZ=              0.5045   YZ=             -3.1133

 Normal termination of Gaussian 16 at Thu May  6 16:30:17 2021.
