 Gaussian 16, Revision A.03,
 Gaussian 16:  EM64L-G16RevA.03 25-Dec-2016

 -------------
 #p 6-31g* mp2
 -------------

 ------------------------------------------------------
 Input file generated by CHIRIPA (05-May-2021 14:51:12)
 ------------------------------------------------------
 Symbolic Z-matrix:
 Charge =  0 Multiplicity = 1

                         Standard orientation:
 ---------------------------------------------------------------------
 Center     Atomic      Atomic             Coordinates (Angstroms)
 Number     Number       Type             X           Y           Z
 ---------------------------------------------------------------------
      1          6           0        2.244183   -1.302494    0.150740
      2          6           0        1.075631   -1.045346    1.102763
      3          6           0        0.075897   -2.201687    1.137435
      4          1           0        1.852804   -1.481141   -0.860127
      5          1           0        2.759071   -2.224604    0.454051
      6          1           0        0.563942   -0.123250    0.798577
      7          1           0        1.469849   -0.867101    2.111444
      8          1           0        0.566072   -3.125114    1.462414
      9          1           0       -0.344981   -2.377037    0.142088
     10          1           0       -0.751244   -1.996816    1.824257
     11          6           0        3.252134   -0.155462    0.105123
     12          6           0        4.420686   -0.412610   -0.846899
     13          6           0        5.420420    0.743731   -0.881571
     14          1           0        2.737246    0.766648   -0.198188
     15          1           0        3.643513    0.023185    1.115991
     16          1           0        4.026469   -0.590855   -1.855580
     17          1           0        4.932375   -1.334706   -0.542713
     18          1           0        5.841299    0.919081    0.113776
     19          1           0        4.930245    1.667159   -1.206551
     20          1           0        6.247561    0.538861   -1.568393
     21          6           0       -3.460058    0.528601   -0.318930
     22          6           0       -3.632942   -0.977330   -0.519607
     23          6           0       -5.062509   -1.362571   -0.901337
     24          1           0       -4.154104    0.870184    0.461177
     25          1           0       -3.747024    1.049885   -1.242677
     26          1           0       -3.344417   -1.495708    0.403786
     27          1           0       -2.938268   -1.315400   -1.299192
     28          1           0       -5.357651   -0.871756   -1.834394
     29          1           0       -5.766107   -1.053088   -0.121740
     30          1           0       -5.163601   -2.443515   -1.039896
     31          6           0       -2.036259    0.929355    0.063067
     32          6           0       -1.863376    2.435285    0.263743
     33          6           0       -0.433808    2.820527    0.645473
     34          1           0       -1.749294    0.408070    0.986813
     35          1           0       -1.342213    0.587772   -0.717040
     36          1           0       -2.558049    2.773356    1.043328
     37          1           0       -2.151901    2.953663   -0.659649
     38          1           0        0.269790    2.511044   -0.134124
     39          1           0       -0.138666    2.329712    1.578530
     40          1           0       -0.332716    3.901471    0.784032
 ---------------------------------------------------------------------

 SCF Done:  E(RHF) =  -470.731710971     A.U. after   11 cycles
 E2 =    -0.1585481866D+01 EUMP2 =    -0.47231719283661D+03

 The electronic state is 1-A.
 Alpha  occ. eigenvalues --  -11.21652 -11.21595 -11.21561 -11.21422 -11.21373
 Alpha  occ. eigenvalues --  -11.21362 -11.21328 -11.21264 -11.21133 -11.21070
 Alpha  occ. eigenvalues --  -11.21038 -11.20972  -1.08501  -1.08322  -1.03581
 Alpha  occ. eigenvalues --   -1.03437  -0.96032  -0.95897  -0.87036  -0.86925
 Alpha  occ. eigenvalues --   -0.79752  -0.79427  -0.78430  -0.78032  -0.65108
 Alpha  occ. eigenvalues --   -0.64989  -0.60969  -0.60871  -0.59431  -0.59245
 Alpha  occ. eigenvalues --   -0.57702  -0.57465  -0.55307  -0.55209  -0.52724
 Alpha  occ. eigenvalues --   -0.52599  -0.52462  -0.52307  -0.49970  -0.49851
 Alpha  occ. eigenvalues --   -0.48161  -0.47772  -0.46688  -0.46547  -0.46085
 Alpha  occ. eigenvalues --   -0.45738  -0.45674  -0.45044  -0.43815  -0.43696
 Alpha virt. eigenvalues --    0.20971   0.22335   0.23654   0.24037   0.24985
 Alpha virt. eigenvalues --    0.26076   0.26643   0.27774   0.28993   0.30165
 Alpha virt. eigenvalues --    0.30804   0.31029   0.31247   0.31878   0.32178

 Mulliken charges:
               1
     1  C   -0.297529
     2  C   -0.311775
     3  C   -0.476614
     4  H    0.148274
     5  H    0.148944
     6  H    0.167932
     7  H    0.149796
     8  H    0.154487
     9  H    0.157128
    10  H    0.158539
    11  C   -0.300045
    12  C   -0.299518
    13  C   -0.475612
    14  H    0.150891
    15  H    0.149671
    16  H    0.151475
    17  H    0.151933
    18  H    0.155219
    19  H    0.155058
    20  H    0.160036
    21  C   -0.297465
    22  C   -0.301152
    23  C   -0.475857
    24  H    0.149487
    25  H    0.149225
    26  H    0.154780
    27  H    0.151408
    28  H    0.155005
    29  H    0.155097
    30  H    0.160474
    31  C   -0.304236
    32  C   -0.298792
    33  C   -0.480091
    34  H    0.155988
    35  H    0.149354
    36  H    0.152109
    37  H    0.151833
    38  H    0.155672
    39  H    0.157816
    40  H    0.161054
 Sum of Mulliken charges =  -0.00000

 Dipole moment (field-independent basis, Debye):
    X=             -0.0539    Y=              0.0422    Z=              0.0121  Tot=              0.0695
 Quadrupole moment (field-independent basis, Debye-Ang):
   XX=            -86.2226   YY=            -85.4143   ZZ=            -83.3493
   XY=             -1.1874   XZ=             -0.0506   YZ=             -0.3773

 Normal termination of Gaussian 16 at Wed May  5 15:19:21 2021.
