 Gaussian 16, Revision A.03,
 Gaussian 16:  EM64L-G16RevA.03 25-Dec-2016

 -------------
 #p 6-31g* mp2
 -------------

 ------------------------------------------------------
 Input file generated by CHIRIPA (05-May-2021 14:53:15)
 ------------------------------------------------------
 Symbolic Z-matrix:
 Charge =  0 Multiplicity = 1

                         Standard orientation:
 ---------------------------------------------------------------------
 Center     Atomic      Atomic             Coordinates (Angstroms)
 Number     Number       Type             X           Y           Z
 ---------------------------------------------------------------------
      1          6           0        4.019086   -0.047812   -0.084417
      2          6           0        4.083934   -1.562812   -0.280772
      3          6           0        5.415546   -2.161327    0.173523
      4          1           0        4.842469    0.422956   -0.638819
      5          1           0        4.183632    0.184744    0.976826
      6          1           0        3.917939   -1.792530   -1.341098
      7          1           0        3.260187   -2.030014    0.274007
      8          1           0        5.585199   -1.961222    1.236433
      9          1           0        6.246688   -1.722389   -0.387849
     10          1           0        5.440259   -3.245279    0.024203
     11          6           0        2.693973    0.565158   -0.533939
     12          6           0        2.629125    2.080158   -0.337584
     13          6           0        1.297512    2.678673   -0.791878
     14          1           0        2.529427    0.332602   -1.595182
     15          1           0        1.870590    0.094390    0.020464
     16          1           0        3.452872    2.547360   -0.892363
     17          1           0        2.795120    2.309876    0.722742
     18          1           0        0.466371    2.239735   -0.230507
     19          1           0        1.127860    2.478568   -1.854788
     20          1           0        1.272800    3.762625   -0.642559
     21          6           0       -3.692172   -1.021656   -1.891430
     22          6           0       -3.222123    0.292869   -1.804268
     23          6           0       -2.627600    0.757752   -0.627418
     24          6           0       -2.518856   -0.122856    0.447753
     25          6           0       -2.977477   -1.438084    0.391798
     26          6           0       -3.568567   -1.881421   -0.795051
     27          1           0       -4.152678   -1.374419   -2.809519
     28          1           0       -3.316784    0.962795   -2.654141
     29          1           0       -2.255142    1.770530   -0.532687
     30          1           0       -2.869073   -2.082507    1.255735
     31          1           0       -3.932717   -2.902811   -0.859886
     32          7           0       -1.891278    0.357890    1.698925
     33          8           0       -1.807330   -0.437675    2.632019
     34          8           0       -1.495215    1.521162    1.722807
 ---------------------------------------------------------------------

 SCF Done:  E(RHF) =  -669.536314002     A.U. after   15 cycles
 E2 =    -0.2091634036D+01 EUMP2 =    -0.67162794803822D+03

 The electronic state is 1-A.
 Alpha  occ. eigenvalues --  -20.60963 -20.60956 -15.85979 -11.31259 -11.27824
 Alpha  occ. eigenvalues --  -11.27804 -11.27555 -11.26823 -11.26808 -11.21315
 Alpha  occ. eigenvalues --  -11.21106 -11.21026 -11.20958 -11.20816 -11.20527
 Alpha  occ. eigenvalues --   -1.60018  -1.39576  -1.19427  -1.08841  -1.08038
 Alpha  occ. eigenvalues --   -1.04816  -1.03134  -0.95697  -0.95584  -0.86619
 Alpha  occ. eigenvalues --   -0.86219  -0.82522  -0.79216  -0.77867  -0.77573
 Alpha  occ. eigenvalues --   -0.72205  -0.71330  -0.70538  -0.65086  -0.64826
 Alpha  occ. eigenvalues --   -0.64652  -0.62171  -0.60510  -0.58968  -0.57210
 Alpha  occ. eigenvalues --   -0.55329  -0.54865  -0.53150  -0.52916  -0.52291
 Alpha  occ. eigenvalues --   -0.52027  -0.49565  -0.48957  -0.48936  -0.47534
 Alpha  occ. eigenvalues --   -0.46246  -0.45439  -0.45336  -0.44857  -0.43399
 Alpha  occ. eigenvalues --   -0.37406  -0.36409
 Alpha virt. eigenvalues --    0.04904   0.11192   0.16397   0.21236   0.23271
 Alpha virt. eigenvalues --    0.24654   0.26457   0.27092   0.27706   0.27971
 Alpha virt. eigenvalues --    0.28972   0.30453   0.31614   0.32034   0.32340

 Mulliken charges:
               1
     1  C   -0.298358
     2  C   -0.299562
     3  C   -0.475559
     4  H    0.148120
     5  H    0.152518
     6  H    0.149323
     7  H    0.152987
     8  H    0.156562
     9  H    0.154275
    10  H    0.158751
    11  C   -0.298048
    12  C   -0.297973
    13  C   -0.487364
    14  H    0.145164
    15  H    0.151285
    16  H    0.148708
    17  H    0.157878
    18  H    0.170995
    19  H    0.145564
    20  H    0.159762
    21  C   -0.170388
    22  C   -0.218992
    23  C   -0.170749
    24  C    0.157716
    25  C   -0.170819
    26  C   -0.218551
    27  H    0.225905
    28  H    0.224158
    29  H    0.278338
    30  H    0.275535
    31  H    0.223673
    32  N    0.488185
    33  O   -0.458799
    34  O   -0.460241
 Sum of Mulliken charges =  -0.00000

 Dipole moment (field-independent basis, Debye):
    X=             -2.3405    Y=             -1.7157    Z=             -4.2697  Tot=              5.1625
 Quadrupole moment (field-independent basis, Debye-Ang):
   XX=            -85.0948   YY=            -90.9306   ZZ=            -97.6839
   XY=              6.0273   XZ=              9.7541   YZ=             -2.0845

 Normal termination of Gaussian 16 at Thu May  6 09:02:45 2021.
