 Gaussian 16, Revision A.03,
 Gaussian 16:  EM64L-G16RevA.03 25-Dec-2016

 -------------
 #p 6-31g* mp2
 -------------

 ------------------------------------------------------
 Input file generated by CHIRIPA (05-May-2021 14:57:23)
 ------------------------------------------------------
 Symbolic Z-matrix:
 Charge =  0 Multiplicity = 1

                         Standard orientation:
 ---------------------------------------------------------------------
 Center     Atomic      Atomic             Coordinates (Angstroms)
 Number     Number       Type             X           Y           Z
 ---------------------------------------------------------------------
      1          6           0       -3.157949    2.283028    0.990229
      2          6           0       -2.076192    1.862277    0.209659
      3          6           0       -2.074939    0.593201   -0.376850
      4          6           0       -3.176781   -0.233029   -0.161027
      5          6           0       -4.269516    0.157396    0.611493
      6          6           0       -4.249235    1.430748    1.188305
      7          1           0       -3.150558    3.270538    1.442077
      8          1           0       -1.227337    2.522049    0.054122
      9          1           0       -1.250673    0.242074   -0.985712
     10          1           0       -5.101500   -0.522633    0.748536
     11          1           0       -5.090726    1.754847    1.794027
     12          7           0       -3.186853   -1.578806   -0.776806
     13          8           0       -4.169562   -2.287858   -0.571464
     14          8           0       -2.211849   -1.899090   -1.453135
     15          6           0        3.488024   -2.298907    1.024572
     16          6           0        2.202663   -1.762691    0.894806
     17          6           0        2.017411   -0.483717    0.361463
     18          6           0        3.144871    0.234564   -0.033756
     19          6           0        4.438264   -0.272231    0.082786
     20          6           0        4.599763   -1.553280    0.618863
     21          1           0        3.622707   -3.293250    1.439949
     22          1           0        1.337441   -2.339479    1.209053
     23          1           0        1.033583   -0.044375    0.249755
     24          1           0        5.281457    0.326719   -0.239242
     25          1           0        5.599171   -1.967174    0.718463
     26          7           0        2.961326    1.589655   -0.599831
     27          8           0        3.970916    2.202216   -0.940615
     28          8           0        1.811349    2.013556   -0.692015
 ---------------------------------------------------------------------

 SCF Done:  E(RHF) =  -868.340260531     A.U. after   16 cycles
 E2 =    -0.2599694420D+01 EUMP2 =    -0.87093995495113D+03

 The electronic state is 1-A.
 Alpha  occ. eigenvalues --  -20.61352 -20.61286 -20.60900 -20.60882 -15.86359
 Alpha  occ. eigenvalues --  -15.85935 -11.31410 -11.31146 -11.27951 -11.27921
 Alpha  occ. eigenvalues --  -11.27671 -11.27601 -11.27581 -11.27286 -11.26883
 Alpha  occ. eigenvalues --  -11.26827 -11.26675 -11.26448  -1.60376  -1.59975
 Alpha  occ. eigenvalues --   -1.39948  -1.39532  -1.19539  -1.19266  -1.08986
 Alpha  occ. eigenvalues --   -1.08681  -1.04895  -1.04610  -0.95882  -0.95553
 Alpha  occ. eigenvalues --   -0.86315  -0.86011  -0.82735  -0.82362  -0.77853
 Alpha  occ. eigenvalues --   -0.77420  -0.72600  -0.72151  -0.71676  -0.71303
 Alpha  occ. eigenvalues --   -0.70680  -0.70334  -0.65200  -0.64932  -0.64864
 Alpha  occ. eigenvalues --   -0.64538  -0.62337  -0.61845  -0.55405  -0.55095
 Alpha  occ. eigenvalues --   -0.53233  -0.53079  -0.52909  -0.52614  -0.49363
 Alpha  occ. eigenvalues --   -0.49292  -0.48922  -0.48891  -0.45418  -0.44972
 Alpha  occ. eigenvalues --   -0.37489  -0.37234  -0.36472  -0.36221
 Alpha virt. eigenvalues --    0.04684   0.04974   0.11151   0.11381   0.16273
 Alpha virt. eigenvalues --    0.16504   0.20451   0.22153   0.25701   0.27616
 Alpha virt. eigenvalues --    0.28279   0.29508   0.31122   0.31435   0.32040

 Mulliken charges:
               1
     1  C   -0.171885
     2  C   -0.224869
     3  C   -0.183892
     4  C    0.159073
     5  C   -0.172953
     6  C   -0.217695
     7  H    0.227585
     8  H    0.247184
     9  H    0.277252
    10  H    0.274304
    11  H    0.223074
    12  N    0.487440
    13  O   -0.460386
    14  O   -0.463551
    15  C   -0.169871
    16  C   -0.218309
    17  C   -0.171655
    18  C    0.157810
    19  C   -0.170421
    20  C   -0.218449
    21  H    0.228078
    22  H    0.230120
    23  H    0.271937
    24  H    0.275420
    25  H    0.224432
    26  N    0.492207
    27  O   -0.455800
    28  O   -0.476181
 Sum of Mulliken charges =  -0.00000

 Dipole moment (field-independent basis, Debye):
    X=              0.8633    Y=             -0.0012    Z=              4.2203  Tot=              4.3077
 Quadrupole moment (field-independent basis, Debye-Ang):
   XX=            -91.6916   YY=           -109.7215   ZZ=           -106.2907
   XY=            -29.5052   XZ=             -3.3585   YZ=             -1.2685

 Normal termination of Gaussian 16 at Fri May  7 04:56:22 2021.
