 Gaussian 16, Revision A.03,
 Gaussian 16:  EM64L-G16RevA.03 25-Dec-2016

 -------------
 #p 6-31g* mp2
 -------------

 ------------------------------------------------------
 Input file generated by CHIRIPA (05-May-2021 14:51:10)
 ------------------------------------------------------
 Symbolic Z-matrix:
 Charge =  0 Multiplicity = 1

                         Standard orientation:
 ---------------------------------------------------------------------
 Center     Atomic      Atomic             Coordinates (Angstroms)
 Number     Number       Type             X           Y           Z
 ---------------------------------------------------------------------
      1          6           0       -4.404809    0.529263   -0.282742
      2          6           0       -5.064835   -0.800614   -0.648499
      3          6           0       -6.481552   -0.626442   -1.196560
      4          1           0       -5.025964    1.047377    0.460676
      5          1           0       -4.378241    1.174235   -1.171955
      6          1           0       -5.088901   -1.443411    0.240798
      7          1           0       -4.441939   -1.315710   -1.390990
      8          1           0       -6.472050   -0.006388   -2.098804
      9          1           0       -7.122688   -0.134815   -0.457744
     10          1           0       -6.934593   -1.589558   -1.451551
     11          6           0       -2.988094    0.371593    0.266610
     12          6           0       -2.328069    1.701470    0.632367
     13          6           0       -0.911352    1.527298    1.180428
     14          1           0       -3.014662   -0.273378    1.155823
     15          1           0       -2.366940   -0.146521   -0.476808
     16          1           0       -2.950964    2.216566    1.374858
     17          1           0       -2.304003    2.344267   -0.256930
     18          1           0       -0.270216    1.035671    0.441612
     19          1           0       -0.920853    0.907245    2.082672
     20          1           0       -0.458310    2.490414    1.435419
     21          6           0        3.121394   -0.952085   -0.024816
     22          6           0        2.179691   -0.874649    1.177341
     23          6           0        1.034346   -1.884370    1.097081
     24          1           0        2.545583   -0.783169   -0.945064
     25          1           0        3.531994   -1.968867   -0.095218
     26          1           0        1.772060    0.142063    1.246269
     27          1           0        2.757843   -1.043579    2.094848
     28          1           0        1.424250   -2.906387    1.051705
     29          1           0        0.432867   -1.714009    0.198304
     30          1           0        0.373416   -1.811694    1.966420
     31          6           0        4.271510    0.051228    0.040948
     32          6           0        5.213213   -0.026208   -1.161209
     33          6           0        6.358557    0.983515   -1.080949
     34          1           0        3.860910    1.068010    0.111349
     35          1           0        4.847319   -0.117688    0.961196
     36          1           0        4.635060    0.142722   -2.078717
     37          1           0        5.620842   -1.042920   -1.230137
     38          1           0        6.960037    0.813152   -0.182172
     39          1           0        5.968653    2.005530   -1.035573
     40          1           0        7.019487    0.910836   -1.950288
 ---------------------------------------------------------------------

 SCF Done:  E(RHF) =  -470.732718777     A.U. after   11 cycles
 E2 =    -0.1583358093D+01 EUMP2 =    -0.47231607686950D+03

 The electronic state is 1-A.
 Alpha  occ. eigenvalues --  -11.21616 -11.21601 -11.21575 -11.21453 -11.21413
 Alpha  occ. eigenvalues --  -11.21357 -11.21353 -11.21297 -11.21079 -11.21071
 Alpha  occ. eigenvalues --  -11.21051 -11.20989  -1.08445  -1.08371  -1.03574
 Alpha  occ. eigenvalues --   -1.03441  -0.96032  -0.95892  -0.87019  -0.86942
 Alpha  occ. eigenvalues --   -0.79649  -0.79500  -0.78261  -0.78176  -0.65117
 Alpha  occ. eigenvalues --   -0.64983  -0.61077  -0.60785  -0.59377  -0.59285
 Alpha  occ. eigenvalues --   -0.57688  -0.57440  -0.55351  -0.55160  -0.52697
 Alpha  occ. eigenvalues --   -0.52628  -0.52408  -0.52325  -0.49967  -0.49848
 Alpha  occ. eigenvalues --   -0.48007  -0.47775  -0.46675  -0.46501  -0.45865
 Alpha  occ. eigenvalues --   -0.45729  -0.45686  -0.45538  -0.43795  -0.43720
 Alpha virt. eigenvalues --    0.21081   0.23027   0.23587   0.25112   0.25597
 Alpha virt. eigenvalues --    0.26452   0.26889   0.27453   0.28144   0.29602
 Alpha virt. eigenvalues --    0.29700   0.31081   0.31454   0.31866   0.32585

 Mulliken charges:
               1
     1  C   -0.298341
     2  C   -0.299616
     3  C   -0.475717
     4  H    0.149701
     5  H    0.149398
     6  H    0.152117
     7  H    0.151965
     8  H    0.155122
     9  H    0.155164
    10  H    0.160317
    11  C   -0.298444
    12  C   -0.300680
    13  C   -0.478090
    14  H    0.149983
    15  H    0.149709
    16  H    0.151910
    17  H    0.151636
    18  H    0.158602
    19  H    0.156717
    20  H    0.159555
    21  C   -0.298179
    22  C   -0.307123
    23  C   -0.475176
    24  H    0.148337
    25  H    0.149361
    26  H    0.161044
    27  H    0.151407
    28  H    0.154487
    29  H    0.154781
    30  H    0.160299
    31  C   -0.298164
    32  C   -0.299561
    33  C   -0.475674
    34  H    0.149521
    35  H    0.149669
    36  H    0.151675
    37  H    0.151876
    38  H    0.155168
    39  H    0.155129
    40  H    0.160116
 Sum of Mulliken charges =  -0.00000

 Dipole moment (field-independent basis, Debye):
    X=             -0.0268    Y=              0.0177    Z=              0.0206  Tot=              0.0381
 Quadrupole moment (field-independent basis, Debye-Ang):
   XX=            -86.2877   YY=            -84.8420   ZZ=            -83.8041
   XY=             -0.9369   XZ=             -0.4215   YZ=             -0.3619

 Normal termination of Gaussian 16 at Thu May  6 02:11:39 2021.
