 Gaussian 16, Revision A.03,
 Gaussian 16:  EM64L-G16RevA.03 25-Dec-2016

 -------------
 #p 6-31g* mp2
 -------------

 ------------------------------------------------------
 Input file generated by CHIRIPA (05-May-2021 14:51:08)
 ------------------------------------------------------
 Symbolic Z-matrix:
 Charge =  0 Multiplicity = 1

                         Standard orientation:
 ---------------------------------------------------------------------
 Center     Atomic      Atomic             Coordinates (Angstroms)
 Number     Number       Type             X           Y           Z
 ---------------------------------------------------------------------
      1          6           0       -2.997624   -0.449242    0.704515
      2          6           0       -1.569549    0.095329    0.749556
      3          6           0       -0.646171   -0.739704    1.637185
      4          1           0       -3.401938   -0.485142    1.725391
      5          1           0       -2.976060   -1.485694    0.340238
      6          1           0       -1.593935    1.130905    1.112326
      7          1           0       -1.168656    0.130117   -0.271567
      8          1           0       -0.592119   -1.771169    1.274199
      9          1           0       -1.019814   -0.764695    2.665955
     10          1           0        0.369625   -0.332638    1.654968
     11          6           0       -3.932672    0.374871   -0.178804
     12          6           0       -5.360747   -0.169699   -0.223844
     13          6           0       -6.284126    0.665333   -1.111474
     14          1           0       -3.954236    1.411323    0.185473
     15          1           0       -3.528358    0.410771   -1.199679
     16          1           0       -5.761640   -0.204488    0.797278
     17          1           0       -5.336361   -1.205276   -0.586615
     18          1           0       -5.910482    0.690324   -2.140244
     19          1           0       -6.338178    1.696798   -0.748488
     20          1           0       -7.299921    0.258267   -1.129257
     21          6           0        3.399278   -0.656365    0.050324
     22          6           0        3.308568   -1.781369   -0.981240
     23          6           0        3.177173   -3.162841   -0.339317
     24          1           0        4.259460   -0.839657    0.708682
     25          1           0        2.505701   -0.681304    0.689302
     26          1           0        4.201397   -1.753451   -1.618965
     27          1           0        2.448615   -1.595277   -1.637338
     28          1           0        2.277318   -3.214875    0.282097
     29          1           0        4.040058   -3.373948    0.300575
     30          1           0        3.113859   -3.952202   -1.094805
     31          6           0        3.531019    0.730736   -0.576035
     32          6           0        3.621728    1.855740    0.455527
     33          6           0        3.753124    3.237212   -0.186393
     34          1           0        4.424595    0.755675   -1.215013
     35          1           0        2.670836    0.914028   -1.234394
     36          1           0        4.481681    1.669647    1.111626
     37          1           0        2.728899    1.827822    1.093253
     38          1           0        2.890237    3.448320   -0.826286
     39          1           0        4.652978    3.289247   -0.807808
     40          1           0        3.816438    4.026572    0.569094
 ---------------------------------------------------------------------

 SCF Done:  E(RHF) =  -470.733317909     A.U. after   11 cycles
 E2 =    -0.1582876077D+01 EUMP2 =    -0.47231619398538D+03

 The electronic state is 1-A.
 Alpha  occ. eigenvalues --  -11.21687 -11.21634 -11.21604 -11.21577 -11.21457
 Alpha  occ. eigenvalues --  -11.21396 -11.21376 -11.21305 -11.21165 -11.21097
 Alpha  occ. eigenvalues --  -11.21066 -11.21042  -1.08487  -1.08410  -1.03591
 Alpha  occ. eigenvalues --   -1.03510  -0.96046  -0.95955  -0.87065  -0.86971
 Alpha  occ. eigenvalues --   -0.79661  -0.79569  -0.78297  -0.78224  -0.65136
 Alpha  occ. eigenvalues --   -0.65042  -0.61011  -0.60884  -0.59429  -0.59323
 Alpha  occ. eigenvalues --   -0.57696  -0.57537  -0.55323  -0.55248  -0.52786
 Alpha  occ. eigenvalues --   -0.52650  -0.52490  -0.52339  -0.49981  -0.49897
 Alpha  occ. eigenvalues --   -0.47982  -0.47891  -0.46702  -0.46595  -0.45842
 Alpha  occ. eigenvalues --   -0.45769  -0.45760  -0.45668  -0.43799  -0.43749
 Alpha virt. eigenvalues --    0.20380   0.23105   0.23891   0.24562   0.25980
 Alpha virt. eigenvalues --    0.26445   0.26806   0.27259   0.28007   0.29109
 Alpha virt. eigenvalues --    0.30591   0.31605   0.31769   0.31863   0.32260

 Mulliken charges:
               1
     1  C   -0.298555
     2  C   -0.299419
     3  C   -0.482905
     4  H    0.149947
     5  H    0.149747
     6  H    0.152164
     7  H    0.151658
     8  H    0.155488
     9  H    0.156130
    10  H    0.165897
    11  C   -0.298327
    12  C   -0.299710
    13  C   -0.475743
    14  H    0.149633
    15  H    0.149651
    16  H    0.152039
    17  H    0.152030
    18  H    0.155221
    19  H    0.155240
    20  H    0.160389
    21  C   -0.306691
    22  C   -0.298805
    23  C   -0.476631
    24  H    0.149497
    25  H    0.157922
    26  H    0.151765
    27  H    0.151405
    28  H    0.156231
    29  H    0.155185
    30  H    0.159887
    31  C   -0.297824
    32  C   -0.300443
    33  C   -0.475696
    34  H    0.149524
    35  H    0.149453
    36  H    0.152095
    37  H    0.151749
    38  H    0.155342
    39  H    0.155251
    40  H    0.160208
 Sum of Mulliken charges =  -0.00000

 Dipole moment (field-independent basis, Debye):
    X=             -0.0298    Y=              0.0021    Z=              0.0155  Tot=              0.0336
 Quadrupole moment (field-independent basis, Debye-Ang):
   XX=            -84.3007   YY=            -85.8530   ZZ=            -84.5871
   XY=              0.0615   XZ=             -0.6253   YZ=              1.0970

 Normal termination of Gaussian 16 at Thu May  6 02:04:56 2021.
