 Gaussian 16, Revision A.03,
 Gaussian 16:  EM64L-G16RevA.03 25-Dec-2016

 -------------
 #p 6-31g* mp2
 -------------

 ------------------------------------------------------
 Input file generated by CHIRIPA (05-May-2021 14:55:20)
 ------------------------------------------------------
 Symbolic Z-matrix:
 Charge =  0 Multiplicity = 1

                         Standard orientation:
 ---------------------------------------------------------------------
 Center     Atomic      Atomic             Coordinates (Angstroms)
 Number     Number       Type             X           Y           Z
 ---------------------------------------------------------------------
      1          6           0       -1.097911   -1.840719    1.289249
      2          6           0       -0.601227   -0.993768    0.293006
      3          6           0       -1.461627   -0.149319   -0.414925
      4          6           0       -2.819144   -0.177698   -0.099278
      5          6           0       -3.344347   -1.010242    0.887800
      6          6           0       -2.465474   -1.846243    1.582948
      7          1           0       -0.422356   -2.493427    1.834221
      8          1           0        0.460377   -0.987362    0.062785
      9          1           0       -1.103888    0.516330   -1.191039
     10          1           0       -4.407500   -0.994333    1.094854
     11          1           0       -2.854012   -2.502953    2.356134
     12          7           0       -3.739789    0.711811   -0.841966
     13          8           0       -4.931631    0.667987   -0.544934
     14          8           0       -3.252115    1.435990   -1.707054
     15          6           0        2.849933    0.895390    0.155503
     16          6           0        3.347759    2.238642    0.690133
     17          6           0        2.207016    3.188682    1.056084
     18          1           0        2.219097    1.070179   -0.726789
     19          1           0        2.206688    0.423550    0.911148
     20          1           0        3.990990    2.707173   -0.065745
     21          1           0        3.977639    2.060622    1.571140
     22          1           0        1.568866    2.745349    1.827330
     23          1           0        1.582292    3.395574    0.181145
     24          1           0        2.585408    4.142789    1.436030
     25          6           0        3.978637   -0.065183   -0.214707
     26          6           0        3.480811   -1.408434   -0.749335
     27          6           0        4.621555   -2.358475   -1.115287
     28          1           0        4.621881    0.406656   -0.970352
     29          1           0        4.609473   -0.239971    0.667586
     30          1           0        2.850931   -1.230414   -1.630344
     31          1           0        2.837580   -1.876965    0.006541
     32          1           0        5.246278   -2.565366   -0.240348
     33          1           0        5.259703   -1.915142   -1.886534
     34          1           0        4.243162   -3.312581   -1.495234
 ---------------------------------------------------------------------

 SCF Done:  E(RHF) =  -669.535061575     A.U. after   15 cycles
 E2 =    -0.2092620063D+01 EUMP2 =    -0.67162768163826D+03

 The electronic state is 1-A.
 Alpha  occ. eigenvalues --  -20.60690 -20.60685 -15.85741 -11.31083 -11.27647
 Alpha  occ. eigenvalues --  -11.27619 -11.27373 -11.26671 -11.26531 -11.22707
 Alpha  occ. eigenvalues --  -11.22355 -11.22260 -11.22220 -11.21896 -11.21496
 Alpha  occ. eigenvalues --   -1.59765  -1.39320  -1.19243  -1.09331  -1.08645
 Alpha  occ. eigenvalues --   -1.04635  -1.04311  -0.96732  -0.95488  -0.87747
 Alpha  occ. eigenvalues --   -0.86047  -0.82326  -0.80413  -0.79218  -0.77340
 Alpha  occ. eigenvalues --   -0.71961  -0.71087  -0.70364  -0.65977  -0.64891
 Alpha  occ. eigenvalues --   -0.64623  -0.62001  -0.61697  -0.60117  -0.58358
 Alpha  occ. eigenvalues --   -0.56002  -0.55154  -0.53428  -0.53191  -0.52956
 Alpha  occ. eigenvalues --   -0.52710  -0.50671  -0.48752  -0.48717  -0.48683
 Alpha  occ. eigenvalues --   -0.47448  -0.46627  -0.46559  -0.44731  -0.44589
 Alpha  occ. eigenvalues --   -0.37230  -0.36224
 Alpha virt. eigenvalues --    0.05153   0.11339   0.16616   0.19945   0.22609
 Alpha virt. eigenvalues --    0.23398   0.24763   0.25216   0.27208   0.28492
 Alpha virt. eigenvalues --    0.29542   0.30564   0.31029   0.31314   0.31668

 Mulliken charges:
               1
     1  C   -0.174843
     2  C   -0.226484
     3  C   -0.174915
     4  C    0.159111
     5  C   -0.171669
     6  C   -0.218221
     7  H    0.224459
     8  H    0.241339
     9  H    0.275010
    10  H    0.275100
    11  H    0.222756
    12  N    0.488104
    13  O   -0.460818
    14  O   -0.460793
    15  C   -0.304975
    16  C   -0.299667
    17  C   -0.477137
    18  H    0.147450
    19  H    0.146419
    20  H    0.154998
    21  H    0.153369
    22  H    0.156054
    23  H    0.157929
    24  H    0.163422
    25  C   -0.297263
    26  C   -0.304818
    27  C   -0.475400
    28  H    0.154403
    29  H    0.152214
    30  H    0.152938
    31  H    0.143197
    32  H    0.157107
    33  H    0.159361
    34  H    0.162262
 Sum of Mulliken charges =  -0.00000

 Dipole moment (field-independent basis, Debye):
    X=              3.5155    Y=             -3.0361    Z=              2.5906  Tot=              5.3187
 Quadrupole moment (field-independent basis, Debye-Ang):
   XX=           -109.9594   YY=            -93.8074   ZZ=            -93.5620
   XY=             10.5104   XZ=            -10.0773   YZ=             -1.7405

 Normal termination of Gaussian 16 at Thu May  6 10:51:29 2021.
