 Gaussian 16, Revision A.03,
 Gaussian 16:  EM64L-G16RevA.03 25-Dec-2016

 -------------
 #p 6-31g* mp2
 -------------

 ------------------------------------------------------
 Input file generated by CHIRIPA (05-May-2021 14:53:16)
 ------------------------------------------------------
 Symbolic Z-matrix:
 Charge =  0 Multiplicity = 1

                         Standard orientation:
 ---------------------------------------------------------------------
 Center     Atomic      Atomic             Coordinates (Angstroms)
 Number     Number       Type             X           Y           Z
 ---------------------------------------------------------------------
      1          6           0       -5.541242   -0.319473   -0.466744
      2          6           0       -6.842936   -0.579691    0.292114
      3          6           0       -7.896343   -1.282529   -0.564709
      4          1           0       -5.757838    0.288350   -1.355890
      5          1           0       -5.140317   -1.275267   -0.831590
      6          1           0       -7.240563    0.376161    0.656608
      7          1           0       -6.623187   -1.186805    1.179661
      8          1           0       -7.523596   -2.249762   -0.917018
      9          1           0       -8.144480   -0.677916   -1.443043
     10          1           0       -8.818727   -1.458747   -0.002556
     11          6           0       -4.478352    0.382578    0.376534
     12          6           0       -3.176658    0.642795   -0.382324
     13          6           0       -2.123250    1.345634    0.474499
     14          1           0       -4.879276    1.338371    0.741381
     15          1           0       -4.261755   -0.225246    1.265680
     16          1           0       -3.396407    1.249909   -1.269870
     17          1           0       -2.779031   -0.313056   -0.746817
     18          1           0       -1.875114    0.741020    1.352833
     19          1           0       -2.495997    2.312866    0.826808
     20          1           0       -1.200866    1.521851   -0.087653
     21          6           0        1.904995    1.458941    0.394635
     22          6           0        1.958704    0.196092    0.993674
     23          6           0        3.066820   -0.634379    0.801462
     24          6           0        4.108117   -0.168078    0.000493
     25          6           0        4.084082    1.084978   -0.609886
     26          6           0        2.965985    1.898579   -0.403825
     27          1           0        1.040308    2.097519    0.549330
     28          1           0        1.136186   -0.147952    1.614273
     29          1           0        3.134407   -1.616581    1.253270
     30          1           0        4.919400    1.400378   -1.223225
     31          1           0        2.927001    2.878847   -0.870300
     32          7           0        5.286514   -1.038331   -0.210324
     33          8           0        6.190904   -0.604251   -0.920457
     34          8           0        5.283436   -2.138036    0.338563
 ---------------------------------------------------------------------

 SCF Done:  E(RHF) =  -669.535481704     A.U. after   15 cycles
 E2 =    -0.2091048894D+01 EUMP2 =    -0.67162653059797D+03

 The electronic state is 1-A.
 Alpha  occ. eigenvalues --  -20.60732 -20.60727 -15.85785 -11.31144 -11.27710
 Alpha  occ. eigenvalues --  -11.27704 -11.27401 -11.26719 -11.26703 -11.22463
 Alpha  occ. eigenvalues --  -11.22286 -11.22070 -11.22042 -11.21900 -11.21428
 Alpha  occ. eigenvalues --   -1.59808  -1.39361  -1.19311  -1.09079  -1.08704
 Alpha  occ. eigenvalues --   -1.04713  -1.04224  -0.96706  -0.95540  -0.87733
 Alpha  occ. eigenvalues --   -0.86106  -0.82377  -0.80298  -0.78847  -0.77426
 Alpha  occ. eigenvalues --   -0.72003  -0.71131  -0.70432  -0.65705  -0.64961
 Alpha  occ. eigenvalues --   -0.64718  -0.62067  -0.61610  -0.60127  -0.58291
 Alpha  occ. eigenvalues --   -0.55984  -0.55261  -0.53384  -0.53144  -0.52974
 Alpha  occ. eigenvalues --   -0.52799  -0.50634  -0.48763  -0.48759  -0.48601
 Alpha  occ. eigenvalues --   -0.47305  -0.46402  -0.46296  -0.44769  -0.44466
 Alpha  occ. eigenvalues --   -0.37275  -0.36319
 Alpha virt. eigenvalues --    0.05079   0.11319   0.16496   0.20283   0.22420
 Alpha virt. eigenvalues --    0.23866   0.25683   0.26266   0.26611   0.27294
 Alpha virt. eigenvalues --    0.28774   0.29647   0.31030   0.31503   0.32324

 Mulliken charges:
               1
     1  C   -0.298913
     2  C   -0.300074
     3  C   -0.476073
     4  H    0.150678
     5  H    0.150801
     6  H    0.152319
     7  H    0.152363
     8  H    0.156014
     9  H    0.155753
    10  H    0.161507
    11  C   -0.299156
    12  C   -0.299168
    13  C   -0.482496
    14  H    0.150405
    15  H    0.149788
    16  H    0.154692
    17  H    0.154846
    18  H    0.152306
    19  H    0.158125
    20  H    0.156396
    21  C   -0.173981
    22  C   -0.219763
    23  C   -0.171268
    24  C    0.158601
    25  C   -0.170993
    26  C   -0.219311
    27  H    0.231061
    28  H    0.224600
    29  H    0.275332
    30  H    0.275370
    31  H    0.223309
    32  N    0.488072
    33  O   -0.460547
    34  O   -0.460594
 Sum of Mulliken charges =  -0.00000

 Dipole moment (field-independent basis, Debye):
    X=             -4.3716    Y=              3.0506    Z=              0.7099  Tot=              5.3778
 Quadrupole moment (field-independent basis, Debye-Ang):
   XX=           -128.4720   YY=            -93.0986   ZZ=            -93.8541
   XY=             14.3597   XZ=              1.4723   YZ=             -3.0523

 Normal termination of Gaussian 16 at Thu May  6 20:26:06 2021.
