 Gaussian 16, Revision A.03,
 Gaussian 16:  EM64L-G16RevA.03 25-Dec-2016

 -------------
 #p 6-31g* mp2
 -------------

 ------------------------------------------------------
 Input file generated by CHIRIPA (05-May-2021 14:53:18)
 ------------------------------------------------------
 Symbolic Z-matrix:
 Charge =  0 Multiplicity = 1

                         Standard orientation:
 ---------------------------------------------------------------------
 Center     Atomic      Atomic             Coordinates (Angstroms)
 Number     Number       Type             X           Y           Z
 ---------------------------------------------------------------------
      1          6           0        3.092475   -0.298259    0.856057
      2          6           0        1.900023   -1.243702    0.707122
      3          6           0        0.820054   -1.003900    1.762563
      4          1           0        3.524677   -0.418601    1.858885
      5          1           0        2.738713    0.739997    0.790694
      6          1           0        2.256121   -2.279888    0.771362
      7          1           0        1.470727   -1.121232   -0.295536
      8          1           0        0.436948    0.019533    1.696104
      9          1           0        1.226805   -1.145707    2.769065
     10          1           0       -0.023011   -1.690529    1.637501
     11          6           0        4.180504   -0.525696   -0.191890
     12          6           0        5.372955    0.419747   -0.042954
     13          6           0        6.452924    0.179945   -1.098395
     14          1           0        4.534265   -1.563952   -0.126526
     15          1           0        3.748302   -0.405354   -1.194718
     16          1           0        5.802251    0.297278    0.959704
     17          1           0        5.016857    1.455934   -0.107195
     18          1           0        6.046173    0.321752   -2.104897
     19          1           0        6.836030   -0.843487   -1.031937
     20          1           0        7.295990    0.866575   -0.973333
     21          6           0       -0.920727    1.956304   -0.175575
     22          6           0       -0.813403    0.788768   -0.938374
     23          6           0       -1.871059   -0.123931   -0.992171
     24          6           0       -3.026653    0.163845   -0.267549
     25          6           0       -3.163913    1.318375    0.501549
     26          6           0       -2.093573    2.216922    0.540689
     27          1           0       -0.094188    2.659813   -0.139477
     28          1           0        0.096247    0.583768   -1.495651
     29          1           0       -1.814735   -1.035487   -1.574674
     30          1           0       -4.083309    1.495329    1.046358
     31          1           0       -2.179727    3.122839    1.133931
     32          7           0       -4.153060   -0.794897   -0.316742
     33          8           0       -5.160492   -0.518233    0.330694
     34          8           0       -4.007177   -1.804869   -1.001806
 ---------------------------------------------------------------------

 SCF Done:  E(RHF) =  -669.534319337     A.U. after   15 cycles
 E2 =    -0.2093921435D+01 EUMP2 =    -0.67162824077203D+03

 The electronic state is 1-A.
 Alpha  occ. eigenvalues --  -20.60808 -20.60803 -15.85862 -11.31258 -11.27813
 Alpha  occ. eigenvalues --  -11.27802 -11.27558 -11.26858 -11.26821 -11.22175
 Alpha  occ. eigenvalues --  -11.22148 -11.22050 -11.21987 -11.21558 -11.21275
 Alpha  occ. eigenvalues --   -1.59883  -1.39436  -1.19431  -1.09035  -1.08820
 Alpha  occ. eigenvalues --   -1.04845  -1.04023  -0.96458  -0.95654  -0.87472
 Alpha  occ. eigenvalues --   -0.86236  -0.82487  -0.80106  -0.78854  -0.77523
 Alpha  occ. eigenvalues --   -0.72080  -0.71205  -0.70539  -0.65749  -0.65084
 Alpha  occ. eigenvalues --   -0.64809  -0.62230  -0.61415  -0.59832  -0.58077
 Alpha  occ. eigenvalues --   -0.55866  -0.55339  -0.53251  -0.52998  -0.52946
 Alpha  occ. eigenvalues --   -0.52809  -0.50353  -0.48844  -0.48833  -0.48403
 Alpha  occ. eigenvalues --   -0.47148  -0.46374  -0.46335  -0.44835  -0.44307
 Alpha  occ. eigenvalues --   -0.37366  -0.36383
 Alpha virt. eigenvalues --    0.04973   0.11155   0.16359   0.19637   0.22850
 Alpha virt. eigenvalues --    0.24089   0.25206   0.25928   0.27332   0.28334
 Alpha virt. eigenvalues --    0.28870   0.30433   0.31217   0.31554   0.31932

 Mulliken charges:
               1
     1  C   -0.297697
     2  C   -0.299931
     3  C   -0.477841
     4  H    0.153377
     5  H    0.141138
     6  H    0.155702
     7  H    0.141746
     8  H    0.157858
     9  H    0.154558
    10  H    0.163390
    11  C   -0.297754
    12  C   -0.299471
    13  C   -0.475894
    14  H    0.152921
    15  H    0.144700
    16  H    0.153926
    17  H    0.149183
    18  H    0.154554
    19  H    0.156990
    20  H    0.161596
    21  C   -0.174697
    22  C   -0.212976
    23  C   -0.170317
    24  C    0.159104
    25  C   -0.170732
    26  C   -0.217666
    27  H    0.226074
    28  H    0.224603
    29  H    0.275893
    30  H    0.275976
    31  H    0.224024
    32  N    0.487967
    33  O   -0.460102
    34  O   -0.460202
 Sum of Mulliken charges =  -0.00000

 Dipole moment (field-independent basis, Debye):
    X=              3.9531    Y=              3.3578    Z=              0.2161  Tot=              5.1912
 Quadrupole moment (field-independent basis, Debye-Ang):
   XX=           -118.0160   YY=            -91.8417   ZZ=            -93.6391
   XY=            -11.8789   XZ=             -2.4991   YZ=              0.7190

 Normal termination of Gaussian 16 at Wed May  5 15:46:26 2021.
