 Gaussian 16, Revision A.03,
 Gaussian 16:  EM64L-G16RevA.03 25-Dec-2016

 -------------
 #p 6-31g* mp2
 -------------

 ------------------------------------------------------
 Input file generated by CHIRIPA (05-May-2021 14:55:22)
 ------------------------------------------------------
 Symbolic Z-matrix:
 Charge =  0 Multiplicity = 1

                         Standard orientation:
 ---------------------------------------------------------------------
 Center     Atomic      Atomic             Coordinates (Angstroms)
 Number     Number       Type             X           Y           Z
 ---------------------------------------------------------------------
      1          6           0       -4.232411    2.319704    0.338036
      2          6           0       -2.834483    2.271972    0.331662
      3          6           0       -2.166270    1.067469    0.092473
      4          6           0       -2.930805   -0.075263   -0.137616
      5          6           0       -4.324740   -0.059893   -0.137700
      6          6           0       -4.971774    1.155672    0.103748
      7          1           0       -4.743268    3.259688    0.524721
      8          1           0       -2.257704    3.174401    0.513304
      9          1           0       -1.085051    1.002115    0.081860
     10          1           0       -4.872521   -0.976069   -0.322024
     11          1           0       -6.057529    1.189764    0.108103
     12          7           0       -2.234608   -1.356272   -0.392030
     13          8           0       -2.931112   -2.349013   -0.591991
     14          8           0       -1.005608   -1.343329   -0.386661
     15          6           0        4.100036    0.555091    0.228775
     16          6           0        5.344566    0.961228   -0.561277
     17          6           0        5.735615    2.422433   -0.338227
     18          1           0        3.263447    1.207650   -0.056236
     19          1           0        4.280870    0.728012    1.298724
     20          1           0        5.161939    0.786294   -1.629295
     21          1           0        6.178242    0.307502   -0.274493
     22          1           0        5.944572    2.608035    0.720305
     23          1           0        4.922495    3.089547   -0.642195
     24          1           0        6.627723    2.691418   -0.912380
     25          6           0        3.696563   -0.902901    0.016180
     26          6           0        2.452033   -1.309037    0.806232
     27          6           0        2.060984   -2.770243    0.583181
     28          1           0        3.515729   -1.075821   -1.053770
     29          1           0        4.533153   -1.555458    0.301190
     30          1           0        1.618358   -0.655312    0.519447
     31          1           0        2.634660   -1.134103    1.874249
     32          1           0        2.874104   -3.437356    0.887149
     33          1           0        1.852028   -2.955844   -0.475351
     34          1           0        1.168877   -3.039227    1.157335
 ---------------------------------------------------------------------

 SCF Done:  E(RHF) =  -669.535843734     A.U. after   15 cycles
 E2 =    -0.2091631336D+01 EUMP2 =    -0.67162747507047D+03

 The electronic state is 1-A.
 Alpha  occ. eigenvalues --  -20.60942 -20.60937 -15.85977 -11.31299 -11.27867
 Alpha  occ. eigenvalues --  -11.27859 -11.27598 -11.26870 -11.26860 -11.21250
 Alpha  occ. eigenvalues --  -11.20925 -11.20862 -11.20590 -11.20442 -11.19559
 Alpha  occ. eigenvalues --   -1.60006  -1.39562  -1.19468  -1.08872  -1.07761
 Alpha  occ. eigenvalues --   -1.04865  -1.02739  -0.95720  -0.95184  -0.86268
 Alpha  occ. eigenvalues --   -0.86208  -0.82550  -0.78880  -0.77651  -0.77475
 Alpha  occ. eigenvalues --   -0.72213  -0.71320  -0.70578  -0.65132  -0.64867
 Alpha  occ. eigenvalues --   -0.64387  -0.62214  -0.60111  -0.58639  -0.56775
 Alpha  occ. eigenvalues --   -0.55368  -0.54477  -0.53196  -0.52957  -0.51857
 Alpha  occ. eigenvalues --   -0.51628  -0.49255  -0.48957  -0.48857  -0.47166
 Alpha  occ. eigenvalues --   -0.45928  -0.45070  -0.45019  -0.44865  -0.43007
 Alpha  occ. eigenvalues --   -0.37446  -0.36465
 Alpha virt. eigenvalues --    0.04918   0.11188   0.16409   0.20882   0.23304
 Alpha virt. eigenvalues --    0.24684   0.26022   0.27466   0.27734   0.28777
 Alpha virt. eigenvalues --    0.28922   0.30476   0.31589   0.32256   0.33126

 Mulliken charges:
               1
     1  C   -0.170481
     2  C   -0.219027
     3  C   -0.170904
     4  C    0.157406
     5  C   -0.170664
     6  C   -0.218620
     7  H    0.226053
     8  H    0.224122
     9  H    0.276826
    10  H    0.275852
    11  H    0.223842
    12  N    0.493965
    13  O   -0.459031
    14  O   -0.465535
    15  C   -0.296256
    16  C   -0.299051
    17  C   -0.475028
    18  H    0.143760
    19  H    0.147388
    20  H    0.152021
    21  H    0.152096
    22  H    0.154171
    23  H    0.152430
    24  H    0.159365
    25  C   -0.298109
    26  C   -0.303542
    27  C   -0.467800
    28  H    0.150650
    29  H    0.147328
    30  H    0.160932
    31  H    0.143715
    32  H    0.143849
    33  H    0.162010
    34  H    0.166267
 Sum of Mulliken charges =  -0.00000

 Dipole moment (field-independent basis, Debye):
    X=             -2.7610    Y=              4.4255    Z=              0.8239  Tot=              5.2808
 Quadrupole moment (field-independent basis, Debye-Ang):
   XX=            -77.2627   YY=            -95.9058   ZZ=            -95.4063
   XY=            -11.5850   XZ=             -1.6603   YZ=             -0.5044

 Normal termination of Gaussian 16 at Thu May  6 10:55:35 2021.
