 Gaussian 16, Revision A.03,
 Gaussian 16:  EM64L-G16RevA.03 25-Dec-2016

 -------------
 #p 6-31g* mp2
 -------------

 ------------------------------------------------------
 Input file generated by CHIRIPA (05-May-2021 14:53:15)
 ------------------------------------------------------
 Symbolic Z-matrix:
 Charge =  0 Multiplicity = 1

                         Standard orientation:
 ---------------------------------------------------------------------
 Center     Atomic      Atomic             Coordinates (Angstroms)
 Number     Number       Type             X           Y           Z
 ---------------------------------------------------------------------
      1          6           0        5.684640    0.083954   -0.033982
      2          6           0        6.252135   -1.184512   -0.671890
      3          6           0        7.705101   -1.022008   -1.119414
      4          1           0        5.758219    0.912269   -0.751914
      5          1           0        6.306064    0.361808    0.828587
      6          1           0        5.629017   -1.460670   -1.532167
      7          1           0        6.177021   -2.009948    0.047575
      8          1           0        8.344650   -0.769462   -0.267475
      9          1           0        7.793532   -0.217063   -1.856193
     10          1           0        8.090730   -1.940590   -1.572578
     11          6           0        4.232956   -0.062829    0.418563
     12          6           0        3.665461    1.205638    1.056471
     13          6           0        2.212495    1.043134    1.503994
     14          1           0        3.611532   -0.340683   -0.444006
     15          1           0        4.159377   -0.891144    1.136494
     16          1           0        3.740575    2.031073    0.337006
     17          1           0        4.288579    1.481796    1.916748
     18          1           0        2.124064    0.238189    2.240774
     19          1           0        1.572946    0.790587    0.652056
     20          1           0        1.826866    1.961715    1.957158
     21          6           0       -2.351139    1.960950   -0.561173
     22          6           0       -1.850421    0.802818    0.042592
     23          6           0       -2.685100   -0.294350    0.275144
     24          6           0       -4.021291   -0.198627   -0.110498
     25          6           0       -4.549870    0.941372   -0.714067
     26          6           0       -3.696893    2.026415   -0.936914
     27          1           0       -1.695632    2.808546   -0.738056
     28          1           0       -0.805717    0.749156    0.335440
     29          1           0       -2.323667   -1.203181    0.740774
     30          1           0       -5.595782    0.965143   -0.994997
     31          1           0       -4.088505    2.924553   -1.405992
     32          7           0       -4.914615   -1.353732    0.130558
     33          8           0       -6.088002   -1.244307   -0.218478
     34          8           0       -4.424499   -2.346656    0.663966
 ---------------------------------------------------------------------

 SCF Done:  E(RHF) =  -669.535600366     A.U. after   15 cycles
 E2 =    -0.2090699320D+01 EUMP2 =    -0.67162629968513D+03

 The electronic state is 1-A.
 Alpha  occ. eigenvalues --  -20.60711 -20.60706 -15.85763 -11.31117 -11.27688
 Alpha  occ. eigenvalues --  -11.27670 -11.27421 -11.26706 -11.26645 -11.22412
 Alpha  occ. eigenvalues --  -11.22191 -11.22021 -11.21995 -11.21864 -11.21395
 Alpha  occ. eigenvalues --   -1.59787  -1.39341  -1.19286  -1.09032  -1.08684
 Alpha  occ. eigenvalues --   -1.04686  -1.04169  -0.96641  -0.95522  -0.87669
 Alpha  occ. eigenvalues --   -0.86085  -0.82354  -0.80245  -0.78807  -0.77402
 Alpha  occ. eigenvalues --   -0.71982  -0.71110  -0.70398  -0.65669  -0.64937
 Alpha  occ. eigenvalues --   -0.64704  -0.62078  -0.61535  -0.60018  -0.58225
 Alpha  occ. eigenvalues --   -0.55952  -0.55186  -0.53369  -0.53133  -0.53019
 Alpha  occ. eigenvalues --   -0.52688  -0.50570  -0.48748  -0.48738  -0.48538
 Alpha  occ. eigenvalues --   -0.47256  -0.46358  -0.46257  -0.44749  -0.44403
 Alpha  occ. eigenvalues --   -0.37271  -0.36289
 Alpha virt. eigenvalues --    0.05129   0.11353   0.16621   0.20284   0.22416
 Alpha virt. eigenvalues --    0.23759   0.25238   0.26253   0.27090   0.28299
 Alpha virt. eigenvalues --    0.28687   0.30055   0.31007   0.31309   0.32038

 Mulliken charges:
               1
     1  C   -0.298769
     2  C   -0.300179
     3  C   -0.476043
     4  H    0.149819
     5  H    0.150749
     6  H    0.152393
     7  H    0.153088
     8  H    0.155783
     9  H    0.155318
    10  H    0.161757
    11  C   -0.299219
    12  C   -0.299101
    13  C   -0.482103
    14  H    0.149103
    15  H    0.151598
    16  H    0.152280
    17  H    0.155778
    18  H    0.160386
    19  H    0.147353
    20  H    0.161579
    21  C   -0.173492
    22  C   -0.227206
    23  C   -0.173535
    24  C    0.158928
    25  C   -0.171416
    26  C   -0.218488
    27  H    0.225542
    28  H    0.236978
    29  H    0.276021
    30  H    0.275289
    31  H    0.223022
    32  N    0.488051
    33  O   -0.460755
    34  O   -0.460509
 Sum of Mulliken charges =  -0.00000

 Dipole moment (field-independent basis, Debye):
    X=              3.3880    Y=              4.0650    Z=             -0.8098  Tot=              5.3534
 Quadrupole moment (field-independent basis, Debye-Ang):
   XX=           -117.6777   YY=            -95.5043   ZZ=            -93.6800
   XY=            -19.4338   XZ=              5.6945   YZ=             -1.8044

 Normal termination of Gaussian 16 at Thu May  6 13:51:15 2021.
