 Gaussian 16, Revision A.03,
 Gaussian 16:  EM64L-G16RevA.03 25-Dec-2016

 -------------
 #p 6-31g* mp2
 -------------

 ------------------------------------------------------
 Input file generated by CHIRIPA (05-May-2021 14:51:11)
 ------------------------------------------------------
 Symbolic Z-matrix:
 Charge =  0 Multiplicity = 1

                         Standard orientation:
 ---------------------------------------------------------------------
 Center     Atomic      Atomic             Coordinates (Angstroms)
 Number     Number       Type             X           Y           Z
 ---------------------------------------------------------------------
      1          6           0       -3.498226    0.695367   -0.359985
      2          6           0       -3.046329    1.949453    0.389042
      3          6           0       -4.034752    3.107968    0.252447
      4          1           0       -3.634462    0.939667   -1.422389
      5          1           0       -4.482289    0.385508    0.018174
      6          1           0       -2.062788    2.256053    0.010545
      7          1           0       -2.910968    1.702092    1.449752
      8          1           0       -5.015901    2.825925    0.647921
      9          1           0       -4.162902    3.383034   -0.799464
     10          1           0       -3.692052    3.994232    0.795543
     11          6           0       -2.520475   -0.471501   -0.232895
     12          6           0       -2.972373   -1.725587   -0.981922
     13          6           0       -1.983950   -2.884102   -0.845327
     14          1           0       -1.536413   -0.161643   -0.611053
     15          1           0       -2.384240   -0.715801    0.829509
     16          1           0       -3.107733   -1.478227   -2.042632
     17          1           0       -3.955913   -2.032188   -0.603424
     18          1           0       -1.855800   -3.159168    0.206584
     19          1           0       -1.002801   -2.602059   -1.240800
     20          1           0       -2.326649   -3.770366   -1.388422
     21          6           0        3.530955   -0.030640   -0.255604
     22          6           0        4.433070    1.188762   -0.062653
     23          6           0        5.471386    1.337899   -1.175061
     24          1           0        4.152799   -0.935111   -0.302369
     25          1           0        3.021354    0.048823   -1.225856
     26          1           0        4.939763    1.107705    0.907558
     27          1           0        3.808991    2.090415   -0.016151
     28          1           0        4.980953    1.443948   -2.148113
     29          1           0        6.118150    0.455655   -1.219156
     30          1           0        6.105510    2.215880   -1.017272
     31          6           0        2.487747   -0.193226    0.848484
     32          6           0        1.585631   -1.412628    0.655532
     33          6           0        0.547315   -1.561765    1.767941
     34          1           0        2.997348   -0.272689    1.818735
     35          1           0        1.865902    0.711245    0.895249
     36          1           0        2.209711   -2.314280    0.609031
     37          1           0        1.078939   -1.331572   -0.314678
     38          1           0       -0.099448   -0.679520    1.812036
     39          1           0        1.037750   -1.667813    2.740992
     40          1           0       -0.086808   -2.439746    1.610152
 ---------------------------------------------------------------------

 SCF Done:  E(RHF) =  -470.731717961     A.U. after   11 cycles
 E2 =    -0.1584690900D+01 EUMP2 =    -0.47231640886106D+03

 The electronic state is 1-A.
 Alpha  occ. eigenvalues --  -11.21642 -11.21607 -11.21592 -11.21534 -11.21402
 Alpha  occ. eigenvalues --  -11.21381 -11.21332 -11.21317 -11.21099 -11.21067
 Alpha  occ. eigenvalues --  -11.21048 -11.20887  -1.08471  -1.08376  -1.03594
 Alpha  occ. eigenvalues --   -1.03440  -0.96007  -0.95924  -0.87018  -0.86956
 Alpha  occ. eigenvalues --   -0.79631  -0.79551  -0.78270  -0.78214  -0.65107
 Alpha  occ. eigenvalues --   -0.65009  -0.60993  -0.60881  -0.59543  -0.59171
 Alpha  occ. eigenvalues --   -0.57849  -0.57302  -0.55337  -0.55196  -0.52774
 Alpha  occ. eigenvalues --   -0.52686  -0.52514  -0.52125  -0.49960  -0.49890
 Alpha  occ. eigenvalues --   -0.47894  -0.47867  -0.46834  -0.46486  -0.45906
 Alpha  occ. eigenvalues --   -0.45800  -0.45547  -0.45477  -0.43799  -0.43698
 Alpha virt. eigenvalues --    0.20864   0.23258   0.23334   0.24772   0.25155
 Alpha virt. eigenvalues --    0.26105   0.26583   0.27889   0.28162   0.29440
 Alpha virt. eigenvalues --    0.29776   0.31129   0.31813   0.32208   0.32520

 Mulliken charges:
               1
     1  C   -0.297901
     2  C   -0.300016
     3  C   -0.475581
     4  H    0.149375
     5  H    0.149601
     6  H    0.151159
     7  H    0.151842
     8  H    0.155398
     9  H    0.155274
    10  H    0.160314
    11  C   -0.302490
    12  C   -0.299617
    13  C   -0.480432
    14  H    0.150304
    15  H    0.154695
    16  H    0.151517
    17  H    0.151787
    18  H    0.157613
    19  H    0.158569
    20  H    0.160017
    21  C   -0.298148
    22  C   -0.299589
    23  C   -0.475674
    24  H    0.149715
    25  H    0.148799
    26  H    0.152015
    27  H    0.151810
    28  H    0.155012
    29  H    0.155207
    30  H    0.160224
    31  C   -0.298588
    32  C   -0.302547
    33  C   -0.480214
    34  H    0.149615
    35  H    0.149609
    36  H    0.151692
    37  H    0.153946
    38  H    0.158802
    39  H    0.153235
    40  H    0.163649
 Sum of Mulliken charges =  -0.00000

 Dipole moment (field-independent basis, Debye):
    X=             -0.0358    Y=             -0.0131    Z=              0.0063  Tot=              0.0386
 Quadrupole moment (field-independent basis, Debye-Ang):
   XX=            -85.1857   YY=            -85.2949   ZZ=            -84.3960
   XY=              0.1738   XZ=              0.4420   YZ=             -0.4053

 Normal termination of Gaussian 16 at Wed May  5 19:50:25 2021.
