 Gaussian 16, Revision A.03,
 Gaussian 16:  EM64L-G16RevA.03 25-Dec-2016

 -------------
 #p 6-31g* mp2
 -------------

 ------------------------------------------------------
 Input file generated by CHIRIPA (05-May-2021 14:53:14)
 ------------------------------------------------------
 Symbolic Z-matrix:
 Charge =  0 Multiplicity = 1

                         Standard orientation:
 ---------------------------------------------------------------------
 Center     Atomic      Atomic             Coordinates (Angstroms)
 Number     Number       Type             X           Y           Z
 ---------------------------------------------------------------------
      1          6           0       -3.486619   -0.425032   -0.307599
      2          6           0       -4.838122   -1.035639   -0.679867
      3          6           0       -4.706771   -2.422558   -1.309945
      4          1           0       -2.859302   -0.362663   -1.207336
      5          1           0       -2.967673   -1.097706    0.389251
      6          1           0       -5.354959   -0.361352   -1.374729
      7          1           0       -5.462365   -1.096385    0.220825
      8          1           0       -4.213870   -3.114358   -0.619247
      9          1           0       -4.105854   -2.375149   -2.223866
     10          1           0       -5.684791   -2.840412   -1.568276
     11          6           0       -3.601448    0.961469    0.323398
     12          6           0       -2.249945    1.572076    0.695667
     13          6           0       -2.381297    2.958995    1.325744
     14          1           0       -4.120395    1.634143   -0.373451
     15          1           0       -4.228766    0.899100    1.223136
     16          1           0       -1.625703    1.632822   -0.205025
     17          1           0       -1.733108    0.897789    1.390528
     18          1           0       -2.982213    2.911586    2.239666
     19          1           0       -2.874197    3.650794    0.635047
     20          1           0       -1.403277    3.376849    1.584075
     21          6           0        2.111838   -1.354355    2.144123
     22          6           0        1.162758   -0.623442    1.421949
     23          6           0        1.515547    0.014976    0.229258
     24          6           0        2.832287   -0.098870   -0.214054
     25          6           0        3.800649   -0.819812    0.482944
     26          6           0        3.425438   -1.450038    1.673146
     27          1           0        1.829074   -1.847111    3.069667
     28          1           0        0.141862   -0.547420    1.785317
     29          1           0        0.800893    0.587251   -0.349697
     30          1           0        4.810565   -0.877552    0.095447
     31          1           0        4.164612   -2.017002    2.231912
     32          7           0        3.217637    0.572659   -1.475385
     33          8           0        4.384241    0.457128   -1.844606
     34          8           0        2.345774    1.201817   -2.070911
 ---------------------------------------------------------------------

 SCF Done:  E(RHF) =  -669.535417736     A.U. after   15 cycles
 E2 =    -0.2091925792D+01 EUMP2 =    -0.67162734352810D+03

 The electronic state is 1-A.
 Alpha  occ. eigenvalues --  -20.60716 -20.60711 -15.85768 -11.31100 -11.27681
 Alpha  occ. eigenvalues --  -11.27634 -11.27420 -11.26695 -11.26644 -11.22481
 Alpha  occ. eigenvalues --  -11.22019 -11.21992 -11.21919 -11.21632 -11.21385
 Alpha  occ. eigenvalues --   -1.59791  -1.39346  -1.19275  -1.09026  -1.08680
 Alpha  occ. eigenvalues --   -1.04674  -1.04079  -0.96485  -0.95517  -0.87505
 Alpha  occ. eigenvalues --   -0.86077  -0.82359  -0.80197  -0.78858  -0.77379
 Alpha  occ. eigenvalues --   -0.71988  -0.71113  -0.70390  -0.65686  -0.64927
 Alpha  occ. eigenvalues --   -0.64670  -0.62060  -0.61464  -0.59852  -0.58109
 Alpha  occ. eigenvalues --   -0.55756  -0.55189  -0.53185  -0.53007  -0.52903
 Alpha  occ. eigenvalues --   -0.52792  -0.50419  -0.48753  -0.48745  -0.48463
 Alpha  occ. eigenvalues --   -0.47210  -0.46363  -0.46279  -0.44758  -0.44331
 Alpha  occ. eigenvalues --   -0.37265  -0.36271
 Alpha virt. eigenvalues --    0.05127   0.11370   0.16606   0.19546   0.22784
 Alpha virt. eigenvalues --    0.23799   0.24238   0.25219   0.27513   0.28346
 Alpha virt. eigenvalues --    0.29294   0.29959   0.31465   0.31502   0.32002

 Mulliken charges:
               1
     1  C   -0.299669
     2  C   -0.300039
     3  C   -0.476233
     4  H    0.153140
     5  H    0.143464
     6  H    0.154606
     7  H    0.151970
     8  H    0.153948
     9  H    0.157714
    10  H    0.161857
    11  C   -0.297515
    12  C   -0.309907
    13  C   -0.475324
    14  H    0.154574
    15  H    0.150667
    16  H    0.156775
    17  H    0.143306
    18  H    0.155872
    19  H    0.160445
    20  H    0.162809
    21  C   -0.171251
    22  C   -0.224824
    23  C   -0.176383
    24  C    0.158659
    25  C   -0.170579
    26  C   -0.218856
    27  H    0.225405
    28  H    0.229505
    29  H    0.281355
    30  H    0.275243
    31  H    0.222996
    32  N    0.487885
    33  O   -0.460688
    34  O   -0.460925
 Sum of Mulliken charges =  -0.00000

 Dipole moment (field-independent basis, Debye):
    X=             -1.5644    Y=             -2.2743    Z=              4.3713  Tot=              5.1699
 Quadrupole moment (field-independent basis, Debye-Ang):
   XX=            -97.5452   YY=            -94.8856   ZZ=            -96.6750
   XY=             -8.7822   XZ=             13.6955   YZ=             -1.0059

 Normal termination of Gaussian 16 at Thu May  6 07:23:06 2021.
