 Gaussian 16, Revision A.03,
 Gaussian 16:  EM64L-G16RevA.03 25-Dec-2016

 -------------
 #p 6-31g* mp2
 -------------

 ------------------------------------------------------
 Input file generated by CHIRIPA (05-May-2021 14:53:18)
 ------------------------------------------------------
 Symbolic Z-matrix:
 Charge =  0 Multiplicity = 1

                         Standard orientation:
 ---------------------------------------------------------------------
 Center     Atomic      Atomic             Coordinates (Angstroms)
 Number     Number       Type             X           Y           Z
 ---------------------------------------------------------------------
      1          6           0        3.130999    0.812626    0.216729
      2          6           0        3.531673   -0.603927   -0.196582
      3          6           0        4.889710   -1.022517    0.367608
      4          1           0        3.902825    1.518159   -0.120099
      5          1           0        3.108242    0.874451    1.313568
      6          1           0        3.552322   -0.663439   -1.292322
      7          1           0        2.758709   -1.306147    0.141102
      8          1           0        4.878398   -0.991426    1.461915
      9          1           0        5.676520   -0.345066    0.020346
     10          1           0        5.156463   -2.038374    0.059813
     11          6           0        1.775678    1.245502   -0.339552
     12          6           0        1.375004    2.662054    0.073759
     13          6           0        0.016967    3.080645   -0.490431
     14          1           0        1.798435    1.183676   -1.436390
     15          1           0        1.003852    0.539969   -0.002724
     16          1           0        2.147967    3.364275   -0.263924
     17          1           0        1.354355    2.721567    1.169500
     18          1           0       -0.769843    2.403194   -0.143168
     19          1           0        0.028279    3.049553   -1.584737
     20          1           0       -0.249786    4.096502   -0.182636
     21          6           0       -3.735357    0.912527    0.382624
     22          6           0       -3.445957    0.440660   -0.901942
     23          6           0       -2.440382   -0.510374   -1.099173
     24          6           0       -1.740847   -0.969899    0.015625
     25          6           0       -2.005769   -0.519166    1.307889
     26          6           0       -3.015608    0.431955    1.481502
     27          1           0       -4.518168    1.651346    0.526665
     28          1           0       -4.003299    0.812095   -1.757191
     29          1           0       -2.195679   -0.892794   -2.082685
     30          1           0       -1.433062   -0.908221    2.140992
     31          1           0       -3.238195    0.796618    2.480262
     32          7           0       -0.674032   -1.976763   -0.180674
     33          8           0       -0.072196   -2.365741    0.817888
     34          8           0       -0.459901   -2.357898   -1.329377
 ---------------------------------------------------------------------

 SCF Done:  E(RHF) =  -669.536145668     A.U. after   15 cycles
 E2 =    -0.2094470372D+01 EUMP2 =    -0.67163061603983D+03

 The electronic state is 1-A.
 Alpha  occ. eigenvalues --  -20.60971 -20.60965 -15.85989 -11.31320 -11.27895
 Alpha  occ. eigenvalues --  -11.27870 -11.27630 -11.26906 -11.26883 -11.21398
 Alpha  occ. eigenvalues --  -11.20989 -11.20977 -11.20749 -11.20522 -11.20214
 Alpha  occ. eigenvalues --   -1.60024  -1.39579  -1.19503  -1.08902  -1.07900
 Alpha  occ. eigenvalues --   -1.04890  -1.02972  -0.95737  -0.95477  -0.86500
 Alpha  occ. eigenvalues --   -0.86288  -0.82567  -0.79077  -0.77670  -0.77615
 Alpha  occ. eigenvalues --   -0.72210  -0.71348  -0.70597  -0.65150  -0.64887
 Alpha  occ. eigenvalues --   -0.64527  -0.62233  -0.60378  -0.58881  -0.57063
 Alpha  occ. eigenvalues --   -0.55391  -0.54814  -0.53258  -0.52978  -0.52177
 Alpha  occ. eigenvalues --   -0.51871  -0.49434  -0.48984  -0.48969  -0.47353
 Alpha  occ. eigenvalues --   -0.46084  -0.45315  -0.45183  -0.44721  -0.43245
 Alpha  occ. eigenvalues --   -0.37448  -0.36484
 Alpha virt. eigenvalues --    0.04877   0.11140   0.16355   0.21309   0.23196
 Alpha virt. eigenvalues --    0.24789   0.26775   0.27253   0.27739   0.28184
 Alpha virt. eigenvalues --    0.28426   0.31000   0.31752   0.32112   0.32448

 Mulliken charges:
               1
     1  C   -0.296967
     2  C   -0.307990
     3  C   -0.475220
     4  H    0.146387
     5  H    0.147370
     6  H    0.151209
     7  H    0.173203
     8  H    0.153223
     9  H    0.150277
    10  H    0.161965
    11  C   -0.298979
    12  C   -0.298055
    13  C   -0.480917
    14  H    0.150626
    15  H    0.145943
    16  H    0.151689
    17  H    0.149282
    18  H    0.159108
    19  H    0.153254
    20  H    0.155956
    21  C   -0.170504
    22  C   -0.217456
    23  C   -0.170162
    24  C    0.156749
    25  C   -0.173208
    26  C   -0.218249
    27  H    0.226729
    28  H    0.224489
    29  H    0.276290
    30  H    0.275984
    31  H    0.224376
    32  N    0.491957
    33  O   -0.461011
    34  O   -0.457344
 Sum of Mulliken charges =  -0.00000

 Dipole moment (field-independent basis, Debye):
    X=             -3.9382    Y=              3.3274    Z=              0.6569  Tot=              5.1974
 Quadrupole moment (field-independent basis, Debye-Ang):
   XX=            -83.0266   YY=           -102.8550   ZZ=            -89.2717
   XY=             -2.4277   XZ=             -1.0196   YZ=             -0.7191

 Normal termination of Gaussian 16 at Thu May  6 12:19:40 2021.
