 Gaussian 16, Revision A.03,
 Gaussian 16:  EM64L-G16RevA.03 25-Dec-2016

 -------------
 #p 6-31g* mp2
 -------------

 ------------------------------------------------------
 Input file generated by CHIRIPA (05-May-2021 14:51:08)
 ------------------------------------------------------
 Symbolic Z-matrix:
 Charge =  0 Multiplicity = 1

                         Standard orientation:
 ---------------------------------------------------------------------
 Center     Atomic      Atomic             Coordinates (Angstroms)
 Number     Number       Type             X           Y           Z
 ---------------------------------------------------------------------
      1          6           0       -4.679121   -0.289528    0.271159
      2          6           0       -5.497262   -0.097123   -1.006186
      3          6           0       -6.987172    0.105666   -0.728990
      4          1           0       -5.071732   -1.154089    0.823731
      5          1           0       -4.816267    0.585543    0.921419
      6          1           0       -5.357518   -0.971675   -1.654450
      7          1           0       -5.102536    0.766965   -1.555877
      8          1           0       -7.145650    0.989249   -0.102278
      9          1           0       -7.402081   -0.759269   -0.201411
     10          1           0       -7.553164    0.241223   -1.655886
     11          6           0       -3.187762   -0.493461    0.010412
     12          6           0       -2.369621   -0.685866    1.287757
     13          6           0       -0.879711   -0.888655    1.010561
     14          1           0       -3.050616   -1.368531   -0.639848
     15          1           0       -2.795151    0.371100   -0.542160
     16          1           0       -2.764347   -1.549954    1.837448
     17          1           0       -2.509365    0.188686    1.936021
     18          1           0       -0.464802   -0.023719    0.482982
     19          1           0       -0.721233   -1.772238    0.383849
     20          1           0       -0.313719   -1.024212    1.937457
     21          6           0        3.729059    1.100560   -0.337980
     22          6           0        2.540611    1.633879    0.462736
     23          6           0        2.143583    3.053510    0.056769
     24          1           0        4.585806    1.775016   -0.203675
     25          1           0        3.480036    1.120827   -1.408014
     26          1           0        2.791287    1.611315    1.531037
     27          1           0        1.686650    0.957971    0.326663
     28          1           0        1.867306    3.088373   -1.002030
     29          1           0        2.978218    3.745429    0.209188
     30          1           0        1.292067    3.415015    0.641659
     31          6           0        4.137824   -0.317571    0.056409
     32          6           0        5.326272   -0.850890   -0.744307
     33          6           0        5.723301   -2.270521   -0.338341
     34          1           0        4.386846   -0.337839    1.126443
     35          1           0        3.281076   -0.992027   -0.077896
     36          1           0        6.180233   -0.174982   -0.608234
     37          1           0        5.075596   -0.828326   -1.812609
     38          1           0        4.888665   -2.962441   -0.490760
     39          1           0        5.999577   -2.305384    0.720459
     40          1           0        6.574815   -2.632027   -0.923230
 ---------------------------------------------------------------------

 SCF Done:  E(RHF) =  -470.733245298     A.U. after   11 cycles
 E2 =    -0.1582479822D+01 EUMP2 =    -0.47231572512008D+03

 The electronic state is 1-A.
 Alpha  occ. eigenvalues --  -11.21624 -11.21614 -11.21562 -11.21515 -11.21424
 Alpha  occ. eigenvalues --  -11.21364 -11.21352 -11.21292 -11.21092 -11.21081
 Alpha  occ. eigenvalues --  -11.21054 -11.21039  -1.08450  -1.08380  -1.03555
 Alpha  occ. eigenvalues --   -1.03484  -0.96004  -0.95940  -0.87029  -0.86950
 Alpha  occ. eigenvalues --   -0.79661  -0.79509  -0.78273  -0.78178  -0.65103
 Alpha  occ. eigenvalues --   -0.64997  -0.61040  -0.60815  -0.59367  -0.59309
 Alpha  occ. eigenvalues --   -0.57623  -0.57542  -0.55336  -0.55191  -0.52708
 Alpha  occ. eigenvalues --   -0.52630  -0.52443  -0.52356  -0.50045  -0.49818
 Alpha  occ. eigenvalues --   -0.48014  -0.47805  -0.46783  -0.46443  -0.45868
 Alpha  occ. eigenvalues --   -0.45744  -0.45699  -0.45513  -0.43800  -0.43737
 Alpha virt. eigenvalues --    0.22016   0.22991   0.23735   0.24724   0.25799
 Alpha virt. eigenvalues --    0.26696   0.27078   0.27551   0.27959   0.28990
 Alpha virt. eigenvalues --    0.30456   0.31557   0.31786   0.31862   0.32078

 Mulliken charges:
               1
     1  C   -0.298306
     2  C   -0.299682
     3  C   -0.475720
     4  H    0.149711
     5  H    0.149614
     6  H    0.151900
     7  H    0.151982
     8  H    0.155233
     9  H    0.155198
    10  H    0.160293
    11  C   -0.298573
    12  C   -0.299418
    13  C   -0.480639
    14  H    0.149441
    15  H    0.149747
    16  H    0.152033
    17  H    0.152143
    18  H    0.159539
    19  H    0.154794
    20  H    0.161328
    21  C   -0.297558
    22  C   -0.308079
    23  C   -0.475598
    24  H    0.149301
    25  H    0.149130
    26  H    0.151603
    27  H    0.160977
    28  H    0.154680
    29  H    0.155281
    30  H    0.159607
    31  C   -0.298625
    32  C   -0.299614
    33  C   -0.475666
    34  H    0.149314
    35  H    0.150656
    36  H    0.151780
    37  H    0.151810
    38  H    0.155219
    39  H    0.155096
    40  H    0.160070
 Sum of Mulliken charges =  -0.00000

 Dipole moment (field-independent basis, Debye):
    X=             -0.0258    Y=             -0.0160    Z=              0.0094  Tot=              0.0318
 Quadrupole moment (field-independent basis, Debye-Ang):
   XX=            -85.8385   YY=            -84.7450   ZZ=            -84.3312
   XY=              0.9539   XZ=              0.4451   YZ=              0.5055

 Normal termination of Gaussian 16 at Wed May  5 21:18:11 2021.
