 Gaussian 16, Revision A.03,
 Gaussian 16:  EM64L-G16RevA.03 25-Dec-2016

 -------------
 #p 6-31g* mp2
 -------------

 ------------------------------------------------------
 Input file generated by CHIRIPA (05-May-2021 14:51:14)
 ------------------------------------------------------
 Symbolic Z-matrix:
 Charge =  0 Multiplicity = 1

                         Standard orientation:
 ---------------------------------------------------------------------
 Center     Atomic      Atomic             Coordinates (Angstroms)
 Number     Number       Type             X           Y           Z
 ---------------------------------------------------------------------
      1          6           0        4.062646   -0.533041    0.014280
      2          6           0        4.656076    0.871336   -0.102130
      3          6           0        6.184545    0.872389   -0.062451
      4          1           0        4.406869   -0.993198    0.950608
      5          1           0        4.451985   -1.156893   -0.802187
      6          1           0        4.264658    1.492740    0.713508
      7          1           0        4.310245    1.328276   -1.038198
      8          1           0        6.591675    0.275525   -0.885008
      9          1           0        6.545829    0.440923    0.876651
     10          1           0        6.587646    1.886387   -0.147163
     11          6           0        2.535566   -0.550512   -0.023821
     12          6           0        1.942136   -1.954889    0.092589
     13          6           0        0.413667   -1.955942    0.052911
     14          1           0        2.146227    0.073340    0.792646
     15          1           0        2.191343   -0.090355   -0.960149
     16          1           0        2.287966   -2.411829    1.028657
     17          1           0        2.333554   -2.576293   -0.723049
     18          1           0        0.052383   -1.524476   -0.886191
     19          1           0        0.006536   -1.359078    0.875468
     20          1           0        0.010565   -2.969940    0.137622
     21          6           0       -3.759788   -0.001568   -0.270875
     22          6           0       -3.514138   -1.377181    0.349876
     23          6           0       -4.443441   -2.453649   -0.211737
     24          1           0       -4.805380    0.289234   -0.100242
     25          1           0       -3.627938   -0.069485   -1.359635
     26          1           0       -3.645059   -1.306381    1.437286
     27          1           0       -2.468958   -1.664657    0.177912
     28          1           0       -4.307856   -2.553492   -1.293517
     29          1           0       -5.490640   -2.193180   -0.026986
     30          1           0       -4.250642   -3.429022    0.245795
     31          6           0       -2.838424    1.085121    0.280416
     32          6           0       -3.084073    2.460734   -0.340335
     33          6           0       -2.154771    3.537202    0.221277
     34          1           0       -2.970275    1.153037    1.369175
     35          1           0       -1.792831    0.794319    0.109782
     36          1           0       -4.129254    2.748210   -0.168371
     37          1           0       -2.953154    2.389934   -1.427746
     38          1           0       -1.107573    3.276733    0.036527
     39          1           0       -2.290355    3.637045    1.303057
     40          1           0       -2.347571    4.512575   -0.236255
 ---------------------------------------------------------------------

 SCF Done:  E(RHF) =  -470.733071636     A.U. after   11 cycles
 E2 =    -0.1583163994D+01 EUMP2 =    -0.47231623562992D+03

 The electronic state is 1-A.
 Alpha  occ. eigenvalues --  -11.21659 -11.21630 -11.21548 -11.21455 -11.21407
 Alpha  occ. eigenvalues --  -11.21392 -11.21311 -11.21251 -11.21163 -11.21092
 Alpha  occ. eigenvalues --  -11.21032 -11.20972  -1.08481  -1.08336  -1.03589
 Alpha  occ. eigenvalues --   -1.03435  -0.96043  -0.95897  -0.87078  -0.86906
 Alpha  occ. eigenvalues --   -0.79714  -0.79462  -0.78320  -0.78110  -0.65108
 Alpha  occ. eigenvalues --   -0.64974  -0.60978  -0.60848  -0.59419  -0.59255
 Alpha  occ. eigenvalues --   -0.57658  -0.57496  -0.55325  -0.55189  -0.52777
 Alpha  occ. eigenvalues --   -0.52613  -0.52452  -0.52314  -0.49982  -0.49837
 Alpha  occ. eigenvalues --   -0.48051  -0.47791  -0.46684  -0.46529  -0.45985
 Alpha  occ. eigenvalues --   -0.45763  -0.45659  -0.45374  -0.43813  -0.43688
 Alpha virt. eigenvalues --    0.21656   0.22985   0.24123   0.24297   0.25714
 Alpha virt. eigenvalues --    0.26563   0.27086   0.27527   0.27871   0.29772
 Alpha virt. eigenvalues --    0.30755   0.31159   0.31657   0.31806   0.32183

 Mulliken charges:
               1
     1  C   -0.298301
     2  C   -0.299705
     3  C   -0.475744
     4  H    0.149854
     5  H    0.149632
     6  H    0.152131
     7  H    0.151901
     8  H    0.155201
     9  H    0.155258
    10  H    0.160408
    11  C   -0.298673
    12  C   -0.300825
    13  C   -0.479518
    14  H    0.149835
    15  H    0.149219
    16  H    0.152398
    17  H    0.152094
    18  H    0.154902
    19  H    0.158926
    20  H    0.160961
    21  C   -0.297125
    22  C   -0.311542
    23  C   -0.474954
    24  H    0.149020
    25  H    0.148559
    26  H    0.150342
    27  H    0.168545
    28  H    0.154531
    29  H    0.154533
    30  H    0.159511
    31  C   -0.301802
    32  C   -0.299388
    33  C   -0.475771
    34  H    0.148728
    35  H    0.153222
    36  H    0.151814
    37  H    0.151587
    38  H    0.155318
    39  H    0.154897
    40  H    0.160023
 Sum of Mulliken charges =  -0.00000

 Dipole moment (field-independent basis, Debye):
    X=              0.0731    Y=             -0.0272    Z=              0.0088  Tot=              0.0785
 Quadrupole moment (field-independent basis, Debye-Ang):
   XX=            -86.1898   YY=            -85.5964   ZZ=            -83.3004
   XY=             -0.8841   XZ=             -0.7095   YZ=             -0.0387

 Normal termination of Gaussian 16 at Thu May  6 05:36:58 2021.
