 Gaussian 16, Revision A.03,
 Gaussian 16:  EM64L-G16RevA.03 25-Dec-2016

 -------------
 #p 6-31g* mp2
 -------------

 ------------------------------------------------------
 Input file generated by CHIRIPA (05-May-2021 14:51:08)
 ------------------------------------------------------
 Symbolic Z-matrix:
 Charge =  0 Multiplicity = 1

                         Standard orientation:
 ---------------------------------------------------------------------
 Center     Atomic      Atomic             Coordinates (Angstroms)
 Number     Number       Type             X           Y           Z
 ---------------------------------------------------------------------
      1          6           0       -4.097203    0.120953   -0.348908
      2          6           0       -5.091207   -0.583879    0.574754
      3          6           0       -6.088889   -1.457163   -0.186692
      4          1           0       -4.650561    0.737670   -1.070295
      5          1           0       -3.553448   -0.633120   -0.934655
      6          1           0       -5.631949    0.171230    1.159582
      7          1           0       -4.535411   -1.198841    1.294149
      8          1           0       -5.566005   -2.231581   -0.757192
      9          1           0       -6.668773   -0.853725   -0.892523
     10          1           0       -6.790034   -1.951580    0.492872
     11          6           0       -3.093333    0.997720    0.397586
     12          6           0       -2.099329    1.702552   -0.526077
     13          6           0       -1.101647    2.575836    0.235369
     14          1           0       -3.637089    1.751793    0.983333
     15          1           0       -2.539975    0.381002    1.118973
     16          1           0       -2.655126    2.317514   -1.245471
     17          1           0       -1.558587    0.947442   -1.110905
     18          1           0       -0.521763    1.972398    0.941200
     19          1           0       -1.624531    3.350254    0.805869
     20          1           0       -0.400502    3.070253   -0.444195
     21          6           0        4.295817   -0.574547    0.279689
     22          6           0        5.265321    0.405472   -0.381831
     23          6           0        6.662695    0.363360    0.237335
     24          1           0        4.230035   -0.347470    1.352560
     25          1           0        4.702695   -1.592135    0.199945
     26          1           0        4.856071    1.420741   -0.302081
     27          1           0        5.328654    0.176157   -1.453287
     28          1           0        7.095136   -0.638134    0.144570
     29          1           0        6.619868    0.613522    1.302317
     30          1           0        7.339514    1.071672   -0.250589
     31          6           0        2.894720   -0.544126   -0.328366
     32          6           0        1.925215   -1.524145    0.333154
     33          6           0        0.527841   -1.482033   -0.286012
     34          1           0        2.487841    0.473462   -0.248622
     35          1           0        2.960500   -0.771203   -1.401237
     36          1           0        1.861881   -1.294830    1.404610
     37          1           0        2.334465   -2.539414    0.253404
     38          1           0        0.570668   -1.732194   -1.350994
     39          1           0        0.095401   -0.480539   -0.193247
     40          1           0       -0.148977   -2.190345    0.201912
 ---------------------------------------------------------------------

 SCF Done:  E(RHF) =  -470.733145982     A.U. after   11 cycles
 E2 =    -0.1583165589D+01 EUMP2 =    -0.47231631157115D+03

 The electronic state is 1-A.
 Alpha  occ. eigenvalues --  -11.21640 -11.21605 -11.21572 -11.21564 -11.21418
 Alpha  occ. eigenvalues --  -11.21369 -11.21358 -11.21309 -11.21118 -11.21107
 Alpha  occ. eigenvalues --  -11.21073 -11.21046  -1.08454  -1.08400  -1.03580
 Alpha  occ. eigenvalues --   -1.03498  -0.96016  -0.95964  -0.87036  -0.86978
 Alpha  occ. eigenvalues --   -0.79647  -0.79554  -0.78265  -0.78208  -0.65189
 Alpha  occ. eigenvalues --   -0.64961  -0.61192  -0.60724  -0.59376  -0.59333
 Alpha  occ. eigenvalues --   -0.57619  -0.57569  -0.55387  -0.55158  -0.52701
 Alpha  occ. eigenvalues --   -0.52667  -0.52457  -0.52370  -0.50008  -0.49856
 Alpha  occ. eigenvalues --   -0.48041  -0.47805  -0.46704  -0.46539  -0.45859
 Alpha  occ. eigenvalues --   -0.45759  -0.45697  -0.45586  -0.43806  -0.43766
 Alpha virt. eigenvalues --    0.20471   0.22980   0.23747   0.24997   0.26143
 Alpha virt. eigenvalues --    0.26502   0.27252   0.27550   0.28391   0.29137
 Alpha virt. eigenvalues --    0.30721   0.31541   0.31652   0.31738   0.32130

 Mulliken charges:
               1
     1  C   -0.298656
     2  C   -0.299626
     3  C   -0.475711
     4  H    0.149403
     5  H    0.150747
     6  H    0.151724
     7  H    0.151901
     8  H    0.155284
     9  H    0.155104
    10  H    0.160103
    11  C   -0.298668
    12  C   -0.304620
    13  C   -0.477735
    14  H    0.149284
    15  H    0.150410
    16  H    0.152787
    17  H    0.156081
    18  H    0.154862
    19  H    0.155883
    20  H    0.160463
    21  C   -0.298289
    22  C   -0.299722
    23  C   -0.475723
    24  H    0.149704
    25  H    0.149523
    26  H    0.152167
    27  H    0.151911
    28  H    0.155149
    29  H    0.155233
    30  H    0.160298
    31  C   -0.299061
    32  C   -0.299188
    33  C   -0.484789
    34  H    0.150439
    35  H    0.149628
    36  H    0.151664
    37  H    0.152065
    38  H    0.155131
    39  H    0.165033
    40  H    0.159808
 Sum of Mulliken charges =  -0.00000

 Dipole moment (field-independent basis, Debye):
    X=              0.0065    Y=              0.0042    Z=             -0.0112  Tot=              0.0136
 Quadrupole moment (field-independent basis, Debye-Ang):
   XX=            -86.0821   YY=            -84.1187   ZZ=            -84.6171
   XY=             -1.3201   XZ=             -0.8023   YZ=              0.1316

 Normal termination of Gaussian 16 at Thu May  6 03:39:55 2021.
