 Gaussian 16, Revision A.03,
 Gaussian 16:  EM64L-G16RevA.03 25-Dec-2016

 -------------
 #p 6-31g* mp2
 -------------

 ------------------------------------------------------
 Input file generated by CHIRIPA (05-May-2021 14:53:16)
 ------------------------------------------------------
 Symbolic Z-matrix:
 Charge =  0 Multiplicity = 1

                         Standard orientation:
 ---------------------------------------------------------------------
 Center     Atomic      Atomic             Coordinates (Angstroms)
 Number     Number       Type             X           Y           Z
 ---------------------------------------------------------------------
      1          6           0       -3.142174   -0.703776   -0.049276
      2          6           0       -4.051693   -1.773879   -0.653959
      3          6           0       -3.731115   -3.179207   -0.143981
      4          1           0       -2.095984   -0.948703   -0.278277
      5          1           0       -3.236516   -0.728054    1.045212
      6          1           0       -3.956707   -1.746661   -1.747052
      7          1           0       -5.095852   -1.526273   -0.423656
      8          1           0       -3.844479   -3.229464    0.943780
      9          1           0       -2.698861   -3.451105   -0.387136
     10          1           0       -4.393147   -3.928529   -0.589054
     11          6           0       -3.450367    0.706408   -0.549403
     12          6           0       -2.540849    1.776510    0.055280
     13          6           0       -2.861426    3.181838   -0.454698
     14          1           0       -3.356026    0.730686   -1.643891
     15          1           0       -4.496558    0.951335   -0.320402
     16          1           0       -1.496690    1.528904   -0.175023
     17          1           0       -2.635835    1.749293    1.148373
     18          1           0       -3.893680    3.453736   -0.211543
     19          1           0       -2.748063    3.232095   -1.542459
     20          1           0       -2.199394    3.931161   -0.009625
     21          6           0        0.847804    0.551651    1.987864
     22          6           0        1.074048    1.433448    0.925900
     23          6           0        2.028672    1.137474   -0.051670
     24          6           0        2.742211   -0.054459    0.064288
     25          6           0        2.539698   -0.953304    1.110403
     26          6           0        1.580061   -0.636816    2.076570
     27          1           0        0.104283    0.789538    2.742835
     28          1           0        0.506850    2.357152    0.854459
     29          1           0        2.224027    1.802230   -0.884347
     30          1           0        3.120727   -1.866463    1.154743
     31          1           0        1.406475   -1.323508    2.900200
     32          7           0        3.755482   -0.378652   -0.964585
     33          8           0        4.370925   -1.435193   -0.839735
     34          8           0        3.915055    0.429925   -1.876384
 ---------------------------------------------------------------------

 SCF Done:  E(RHF) =  -669.534754458     A.U. after   15 cycles
 E2 =    -0.2092734055D+01 EUMP2 =    -0.67162748851301D+03

 The electronic state is 1-A.
 Alpha  occ. eigenvalues --  -20.60785 -20.60780 -15.85838 -11.31209 -11.27772
 Alpha  occ. eigenvalues --  -11.27767 -11.27501 -11.26789 -11.26751 -11.22325
 Alpha  occ. eigenvalues --  -11.21981 -11.21946 -11.21845 -11.21841 -11.21411
 Alpha  occ. eigenvalues --   -1.59860  -1.39414  -1.19384  -1.08989  -1.08765
 Alpha  occ. eigenvalues --   -1.04795  -1.04094  -0.96531  -0.95604  -0.87546
 Alpha  occ. eigenvalues --   -0.86187  -0.82441  -0.80192  -0.78797  -0.77480
 Alpha  occ. eigenvalues --   -0.72056  -0.71184  -0.70471  -0.65636  -0.65030
 Alpha  occ. eigenvalues --   -0.64791  -0.62179  -0.61460  -0.59916  -0.58149
 Alpha  occ. eigenvalues --   -0.55802  -0.55266  -0.53292  -0.53116  -0.52940
 Alpha  occ. eigenvalues --   -0.52873  -0.50455  -0.48825  -0.48811  -0.48472
 Alpha  occ. eigenvalues --   -0.47197  -0.46324  -0.46224  -0.44818  -0.44336
 Alpha  occ. eigenvalues --   -0.37315  -0.36343
 Alpha virt. eigenvalues --    0.05034   0.11189   0.16460   0.20251   0.22598
 Alpha virt. eigenvalues --    0.23727   0.25616   0.26047   0.26842   0.28327
 Alpha virt. eigenvalues --    0.28830   0.30096   0.31003   0.31678   0.31922

 Mulliken charges:
               1
     1  C   -0.299502
     2  C   -0.300081
     3  C   -0.476101
     4  H    0.153515
     5  H    0.145096
     6  H    0.154232
     7  H    0.152226
     8  H    0.153310
     9  H    0.156554
    10  H    0.162115
    11  C   -0.297510
    12  C   -0.308535
    13  C   -0.476656
    14  H    0.152663
    15  H    0.150622
    16  H    0.157345
    17  H    0.144530
    18  H    0.158803
    19  H    0.159299
    20  H    0.154367
    21  C   -0.169623
    22  C   -0.218890
    23  C   -0.173840
    24  C    0.158626
    25  C   -0.171055
    26  C   -0.218680
    27  H    0.226555
    28  H    0.228259
    29  H    0.275730
    30  H    0.275658
    31  H    0.223704
    32  N    0.488076
    33  O   -0.460387
    34  O   -0.460427
 Sum of Mulliken charges =  -0.00000

 Dipole moment (field-independent basis, Debye):
    X=             -3.6225    Y=              1.0811    Z=              3.5659  Tot=              5.1968
 Quadrupole moment (field-independent basis, Debye-Ang):
   XX=           -114.3822   YY=            -92.6247   ZZ=            -93.1187
   XY=              2.4264   XZ=             10.1109   YZ=             -2.1361

 Normal termination of Gaussian 16 at Wed May  5 15:40:07 2021.
