 Gaussian 16, Revision A.03,
 Gaussian 16:  EM64L-G16RevA.03 25-Dec-2016

 -------------
 #p 6-31g* mp2
 -------------

 ------------------------------------------------------
 Input file generated by CHIRIPA (05-May-2021 14:57:25)
 ------------------------------------------------------
 Symbolic Z-matrix:
 Charge =  0 Multiplicity = 1

                         Standard orientation:
 ---------------------------------------------------------------------
 Center     Atomic      Atomic             Coordinates (Angstroms)
 Number     Number       Type             X           Y           Z
 ---------------------------------------------------------------------
      1          6           0       -4.401700    1.551604    0.797068
      2          6           0       -4.788376    0.824796   -0.333751
      3          6           0       -3.936903   -0.137528   -0.884637
      4          6           0       -2.700391   -0.348252   -0.276424
      5          6           0       -2.286557    0.359710    0.850882
      6          6           0       -3.154224    1.317155    1.384740
      7          1           0       -5.069434    2.297264    1.218396
      8          1           0       -5.756593    1.004757   -0.792244
      9          1           0       -4.211039   -0.714470   -1.759512
     10          1           0       -1.315174    0.158034    1.285807
     11          1           0       -2.851282    1.880107    2.263008
     12          7           0       -1.790403   -1.364438   -0.850609
     13          8           0       -0.706283   -1.531276   -0.296095
     14          8           0       -2.178505   -1.974846   -1.844297
     15          6           0        2.281237   -1.812546    1.620086
     16          6           0        3.153795   -1.957509    0.536506
     17          6           0        3.476225   -0.859956   -0.267215
     18          6           0        2.905390    0.373479    0.042743
     19          6           0        2.032742    0.549849    1.115435
     20          6           0        1.724476   -0.561537    1.905590
     21          1           0        2.036267   -2.670524    2.239166
     22          1           0        3.587673   -2.927860    0.312421
     23          1           0        4.148822   -0.943998   -1.112181
     24          1           0        1.615941    1.529789    1.313958
     25          1           0        1.046530   -0.446003    2.746474
     26          7           0        3.239234    1.542731   -0.800940
     27          8           0        2.723064    2.618711   -0.506881
     28          8           0        4.010750    1.361068   -1.740301
 ---------------------------------------------------------------------

 SCF Done:  E(RHF) =  -868.337101678     A.U. after   16 cycles
 E2 =    -0.2601632654D+01 EUMP2 =    -0.87093873433161D+03

 The electronic state is 1-A.
 Alpha  occ. eigenvalues --  -20.61029 -20.61006 -20.60260 -20.60240 -15.86066
 Alpha  occ. eigenvalues --  -15.85304 -11.31442 -11.30490 -11.28052 -11.27979
 Alpha  occ. eigenvalues --  -11.27728 -11.27166 -11.27047 -11.27031 -11.26988
 Alpha  occ. eigenvalues --  -11.26766 -11.26163 -11.25981  -1.60101  -1.59330
 Alpha  occ. eigenvalues --   -1.39654  -1.38891  -1.19608  -1.18645  -1.08998
 Alpha  occ. eigenvalues --   -1.08069  -1.05023  -1.04083  -0.95839  -0.94947
 Alpha  occ. eigenvalues --   -0.86417  -0.85495  -0.82677  -0.81828  -0.77737
 Alpha  occ. eigenvalues --   -0.76898  -0.72306  -0.71538  -0.71420  -0.70723
 Alpha  occ. eigenvalues --   -0.70641  -0.69801  -0.65267  -0.65039  -0.64348
 Alpha  occ. eigenvalues --   -0.64151  -0.62404  -0.61469  -0.55507  -0.54577
 Alpha  occ. eigenvalues --   -0.53333  -0.53140  -0.52276  -0.52229  -0.49063
 Alpha  occ. eigenvalues --   -0.49035  -0.48298  -0.48274  -0.45061  -0.44339
 Alpha  occ. eigenvalues --   -0.37571  -0.36623  -0.36507  -0.35598
 Alpha virt. eigenvalues --    0.04776   0.05687   0.11015   0.12021   0.16311
 Alpha virt. eigenvalues --    0.17015   0.20419   0.22179   0.25945   0.27565
 Alpha virt. eigenvalues --    0.28813   0.29301   0.30648   0.31359   0.32935

 Mulliken charges:
               1
     1  C   -0.169774
     2  C   -0.218299
     3  C   -0.169608
     4  C    0.157316
     5  C   -0.171604
     6  C   -0.218927
     7  H    0.226894
     8  H    0.224821
     9  H    0.276577
    10  H    0.271535
    11  H    0.222077
    12  N    0.489810
    13  O   -0.464492
    14  O   -0.459450
    15  C   -0.158090
    16  C   -0.213255
    17  C   -0.167213
    18  C    0.160848
    19  C   -0.170617
    20  C   -0.209527
    21  H    0.224198
    22  H    0.222844
    23  H    0.274335
    24  H    0.266796
    25  H    0.211003
    26  N    0.488162
    27  O   -0.465656
    28  O   -0.460704
 Sum of Mulliken charges =  -0.00000

 Dipole moment (field-independent basis, Debye):
    X=             -4.4397    Y=             -0.7964    Z=              4.8441  Tot=              6.6190
 Quadrupole moment (field-independent basis, Debye-Ang):
   XX=            -90.6926   YY=           -109.5808   ZZ=           -102.7802
   XY=            -23.1983   XZ=              4.8669   YZ=              1.8437

 Normal termination of Gaussian 16 at Thu May  6 18:04:37 2021.
