 Gaussian 16, Revision A.03,
 Gaussian 16:  EM64L-G16RevA.03 25-Dec-2016

 -------------
 #p 6-31g* mp2
 -------------

 ------------------------------------------------------
 Input file generated by CHIRIPA (05-May-2021 14:57:24)
 ------------------------------------------------------
 Symbolic Z-matrix:
 Charge =  0 Multiplicity = 1

                         Standard orientation:
 ---------------------------------------------------------------------
 Center     Atomic      Atomic             Coordinates (Angstroms)
 Number     Number       Type             X           Y           Z
 ---------------------------------------------------------------------
      1          6           0       -2.548662    2.622022    0.568922
      2          6           0       -1.852063    1.706102    1.364134
      3          6           0       -1.957136    0.332936    1.123464
      4          6           0       -2.771397   -0.091325    0.074525
      5          6           0       -3.477953    0.796470   -0.735345
      6          6           0       -3.357957    2.165088   -0.476436
      7          1           0       -2.461242    3.686964    0.762965
      8          1           0       -1.222819    2.058097    2.176659
      9          1           0       -1.428896   -0.397984    1.723577
     10          1           0       -4.097476    0.415380   -1.538077
     11          1           0       -3.900103    2.874114   -1.095634
     12          7           0       -2.890533   -1.542627   -0.189916
     13          8           0       -3.614430   -1.890900   -1.120139
     14          8           0       -2.257757   -2.304404    0.538046
     15          6           0        3.589904    2.211342   -0.430471
     16          6           0        2.227042    1.928568   -0.568910
     17          6           0        1.751439    0.625048   -0.398065
     18          6           0        2.670734   -0.375947   -0.087910
     19          6           0        4.034499   -0.125842    0.056597
     20          6           0        4.487700    1.185044   -0.118709
     21          1           0        3.950663    3.226809   -0.564920
     22          1           0        1.527509    2.723612   -0.810986
     23          1           0        0.701573    0.378223   -0.499436
     24          1           0        4.707661   -0.939367    0.298361
     25          1           0        5.546663    1.401725   -0.010587
     26          7           0        2.179092   -1.759825    0.095317
     27          8           0        3.009395   -2.623987    0.368185
     28          8           0        0.972749   -1.954141   -0.037406
 ---------------------------------------------------------------------

 SCF Done:  E(RHF) =  -868.336090341     A.U. after   16 cycles
 E2 =    -0.2602690306D+01 EUMP2 =    -0.87093878064719D+03

 The electronic state is 1-A.
 Alpha  occ. eigenvalues --  -20.60573 -20.60535 -20.60277 -20.60134 -15.85600
 Alpha  occ. eigenvalues --  -15.85264 -11.31204 -11.31154 -11.27799 -11.27775
 Alpha  occ. eigenvalues --  -11.27772 -11.27705 -11.27635 -11.27609 -11.26907
 Alpha  occ. eigenvalues --  -11.26893 -11.26892 -11.26861  -1.59631  -1.59265
 Alpha  occ. eigenvalues --   -1.39178  -1.38798  -1.19416  -1.19379  -1.08764
 Alpha  occ. eigenvalues --   -1.08679  -1.04880  -1.04804  -0.95560  -0.95410
 Alpha  occ. eigenvalues --   -0.86245  -0.86185  -0.82395  -0.82217  -0.77432
 Alpha  occ. eigenvalues --   -0.77141  -0.71850  -0.71450  -0.70975  -0.70561
 Alpha  occ. eigenvalues --   -0.70525  -0.70435  -0.65064  -0.64990  -0.64864
 Alpha  occ. eigenvalues --   -0.64794  -0.62225  -0.62104  -0.55355  -0.55327
 Alpha  occ. eigenvalues --   -0.53308  -0.53151  -0.52903  -0.52806  -0.48599
 Alpha  occ. eigenvalues --   -0.48567  -0.48285  -0.48189  -0.44541  -0.44045
 Alpha  occ. eigenvalues --   -0.37427  -0.37410  -0.36667  -0.36266
 Alpha virt. eigenvalues --    0.04989   0.05473   0.11014   0.11271   0.16480
 Alpha virt. eigenvalues --    0.16809   0.21166   0.21461   0.26996   0.27354
 Alpha virt. eigenvalues --    0.28079   0.28340   0.30590   0.31029   0.32141

 Mulliken charges:
               1
     1  C   -0.176001
     2  C   -0.223236
     3  C   -0.177143
     4  C    0.159061
     5  C   -0.172064
     6  C   -0.219360
     7  H    0.223133
     8  H    0.223610
     9  H    0.285762
    10  H    0.277020
    11  H    0.222846
    12  N    0.488048
    13  O   -0.464759
    14  O   -0.442739
    15  C   -0.171502
    16  C   -0.221637
    17  C   -0.176224
    18  C    0.157448
    19  C   -0.170606
    20  C   -0.218778
    21  H    0.224128
    22  H    0.220515
    23  H    0.279392
    24  H    0.276519
    25  H    0.223396
    26  N    0.487425
    27  O   -0.460147
    28  O   -0.454107
 Sum of Mulliken charges =  -0.00000

 Dipole moment (field-independent basis, Debye):
    X=              2.0823    Y=              9.5621    Z=              0.3572  Tot=              9.7927
 Quadrupole moment (field-independent basis, Debye-Ang):
   XX=            -92.4146   YY=           -110.0146   ZZ=           -102.6839
   XY=             -3.8199   XZ=             -0.8897   YZ=             -1.2479

 Normal termination of Gaussian 16 at Fri May  7 04:59:56 2021.
