 Gaussian 16, Revision A.03,
 Gaussian 16:  EM64L-G16RevA.03 25-Dec-2016

 -------------
 #p 6-31g* mp2
 -------------

 ------------------------------------------------------
 Input file generated by CHIRIPA (05-May-2021 14:57:23)
 ------------------------------------------------------
 Symbolic Z-matrix:
 Charge =  0 Multiplicity = 1

                         Standard orientation:
 ---------------------------------------------------------------------
 Center     Atomic      Atomic             Coordinates (Angstroms)
 Number     Number       Type             X           Y           Z
 ---------------------------------------------------------------------
      1          6           0       -3.798343   -2.338577    0.501183
      2          6           0       -4.723734   -1.421679    1.010567
      3          6           0       -4.591614   -0.056029    0.742071
      4          6           0       -3.517300    0.359801   -0.042930
      5          6           0       -2.578886   -0.529187   -0.564821
      6          6           0       -2.730755   -1.890195   -0.283502
      7          1           0       -3.908648   -3.397644    0.714737
      8          1           0       -5.553822   -1.767041    1.620259
      9          1           0       -5.293528    0.675456    1.123730
     10          1           0       -1.761792   -0.154795   -1.169474
     11          1           0       -2.010566   -2.600001   -0.680426
     12          7           0       -3.366976    1.803097   -0.333962
     13          8           0       -2.411742    2.144015   -1.028181
     14          8           0       -4.207233    2.566105    0.137656
     15          6           0        1.319702   -1.147726   -0.617182
     16          6           0        1.386922    0.192170   -0.221352
     17          6           0        2.612861    0.771006    0.120069
     18          6           0        3.756926   -0.022758    0.054144
     19          6           0        3.722455   -1.360508   -0.336405
     20          6           0        2.485628   -1.918429   -0.673346
     21          1           0        0.363134   -1.589256   -0.880667
     22          1           0        0.483074    0.793103   -0.176814
     23          1           0        2.693579    1.805858    0.429883
     24          1           0        4.640585   -1.934313   -0.371090
     25          1           0        2.436431   -2.959267   -0.980399
     26          7           0        5.060536    0.578959    0.413220
     27          8           0        6.053995   -0.141652    0.346940
     28          8           0        5.064162    1.759805    0.754145
 ---------------------------------------------------------------------

 SCF Done:  E(RHF) =  -868.336689970     A.U. after   16 cycles
 E2 =    -0.2601483870D+01 EUMP2 =    -0.87093817384010D+03

 The electronic state is 1-A.
 Alpha  occ. eigenvalues --  -20.61824 -20.61779 -20.60785 -20.60772 -15.86840
 Alpha  occ. eigenvalues --  -15.85833 -11.32257 -11.31281 -11.28940 -11.28747
 Alpha  occ. eigenvalues --  -11.28523 -11.27949 -11.27865 -11.27774 -11.27754
 Alpha  occ. eigenvalues --  -11.27749 -11.26987 -11.26819  -1.60860  -1.59854
 Alpha  occ. eigenvalues --   -1.40417  -1.39404  -1.20426  -1.19463  -1.09793
 Alpha  occ. eigenvalues --   -1.08888  -1.05863  -1.04854  -0.96631  -0.95706
 Alpha  occ. eigenvalues --   -0.87248  -0.86276  -0.83492  -0.82505  -0.78553
 Alpha  occ. eigenvalues --   -0.77505  -0.73055  -0.72178  -0.72056  -0.71571
 Alpha  occ. eigenvalues --   -0.71175  -0.70667  -0.66083  -0.65896  -0.65128
 Alpha  occ. eigenvalues --   -0.64889  -0.63194  -0.62154  -0.56311  -0.55504
 Alpha  occ. eigenvalues --   -0.54132  -0.53960  -0.53199  -0.52935  -0.49820
 Alpha  occ. eigenvalues --   -0.49803  -0.48819  -0.48800  -0.45803  -0.44790
 Alpha  occ. eigenvalues --   -0.38360  -0.37588  -0.37367  -0.36433
 Alpha virt. eigenvalues --    0.03975   0.04992   0.10132   0.11173   0.15425
 Alpha virt. eigenvalues --    0.16456   0.18233   0.22295   0.24948   0.25699
 Alpha virt. eigenvalues --    0.27506   0.29146   0.30298   0.31234   0.33039

 Mulliken charges:
               1
     1  C   -0.169469
     2  C   -0.217534
     3  C   -0.169076
     4  C    0.159414
     5  C   -0.176811
     6  C   -0.219046
     7  H    0.229287
     8  H    0.227943
     9  H    0.279185
    10  H    0.271354
    11  H    0.218572
    12  N    0.489213
    13  O   -0.465484
    14  O   -0.453647
    15  C   -0.173037
    16  C   -0.225873
    17  C   -0.170431
    18  C    0.159208
    19  C   -0.171082
    20  C   -0.219171
    21  H    0.214069
    22  H    0.236677
    23  H    0.280107
    24  H    0.275700
    25  H    0.220934
    26  N    0.487773
    27  O   -0.460735
    28  O   -0.458040
 Sum of Mulliken charges =  -0.00000

 Dipole moment (field-independent basis, Debye):
    X=             -5.4116    Y=             -7.0293    Z=             -0.0459  Tot=              8.8712
 Quadrupole moment (field-independent basis, Debye-Ang):
   XX=           -129.7635   YY=           -104.9103   ZZ=           -104.9305
   XY=              7.1079   XZ=            -12.0958   YZ=              1.8713

 Normal termination of Gaussian 16 at Thu May  6 09:45:37 2021.
