 Gaussian 16, Revision A.03,
 Gaussian 16:  EM64L-G16RevA.03 25-Dec-2016

 -------------
 #p 6-31g* mp2
 -------------

 ------------------------------------------------------
 Input file generated by CHIRIPA (05-May-2021 14:53:18)
 ------------------------------------------------------
 Symbolic Z-matrix:
 Charge =  0 Multiplicity = 1

                         Standard orientation:
 ---------------------------------------------------------------------
 Center     Atomic      Atomic             Coordinates (Angstroms)
 Number     Number       Type             X           Y           Z
 ---------------------------------------------------------------------
      1          6           0        3.018327    0.112451    0.428744
      2          6           0        3.490394   -0.436867   -0.917877
      3          6           0        4.578726   -1.501047   -0.773486
      4          1           0        3.877785    0.535531    0.966591
      5          1           0        2.642225   -0.716896    1.043663
      6          1           0        3.864213    0.393462   -1.530600
      7          1           0        2.629678   -0.858516   -1.452663
      8          1           0        4.213377   -2.348206   -0.184044
      9          1           0        5.454926   -1.089114   -0.262423
     10          1           0        4.901506   -1.880007   -1.748197
     11          6           0        1.930405    1.177255    0.300889
     12          6           0        1.458338    1.726574    1.647509
     13          6           0        0.370006    2.790753    1.503118
     14          1           0        2.306507    2.006603   -0.314031
     15          1           0        1.070947    0.754175   -0.236959
     16          1           0        2.319054    2.148223    2.182296
     17          1           0        1.084519    0.896245    2.260232
     18          1           0       -0.506194    2.378821    0.992056
     19          1           0        0.735355    3.637913    0.913676
     20          1           0        0.047226    3.169713    2.477830
     21          6           0       -1.618263   -2.546912    1.161521
     22          6           0       -2.675547   -1.666621    1.414026
     23          6           0       -2.859604   -0.531453    0.619001
     24          6           0       -1.963536   -0.306270   -0.424858
     25          6           0       -0.900508   -1.164564   -0.701614
     26          6           0       -0.735673   -2.293520    0.106367
     27          1           0       -1.482748   -3.426326    1.784148
     28          1           0       -3.362524   -1.860886    2.232786
     29          1           0       -3.669623    0.166593    0.792265
     30          1           0       -0.231993   -0.944327   -1.525023
     31          1           0        0.086319   -2.975431   -0.092060
     32          7           0       -2.148214    0.892193   -1.273373
     33          8           0       -1.345016    1.068136   -2.186913
     34          8           0       -3.092665    1.632915   -1.008833
 ---------------------------------------------------------------------

 SCF Done:  E(RHF) =  -669.534785164     A.U. after   15 cycles
 E2 =    -0.2095183856D+01 EUMP2 =    -0.67162996901942D+03

 The electronic state is 1-A.
 Alpha  occ. eigenvalues --  -20.60915 -20.60900 -15.85935 -11.31299 -11.27877
 Alpha  occ. eigenvalues --  -11.27874 -11.27616 -11.26886 -11.26870 -11.21888
 Alpha  occ. eigenvalues --  -11.21501 -11.21439 -11.21393 -11.21159 -11.20764
 Alpha  occ. eigenvalues --   -1.59972  -1.39524  -1.19490  -1.08878  -1.08457
 Alpha  occ. eigenvalues --   -1.04889  -1.03558  -0.95991  -0.95709  -0.87003
 Alpha  occ. eigenvalues --   -0.86287  -0.82538  -0.79637  -0.78260  -0.77568
 Alpha  occ. eigenvalues --   -0.72157  -0.71309  -0.70600  -0.65178  -0.65131
 Alpha  occ. eigenvalues --   -0.64842  -0.62222  -0.60974  -0.59373  -0.57589
 Alpha  occ. eigenvalues --   -0.55404  -0.55281  -0.53217  -0.52980  -0.52694
 Alpha  occ. eigenvalues --   -0.52388  -0.49953  -0.48918  -0.48916  -0.47939
 Alpha  occ. eigenvalues --   -0.46704  -0.45816  -0.45698  -0.44821  -0.43790
 Alpha  occ. eigenvalues --   -0.37434  -0.36432
 Alpha virt. eigenvalues --    0.04912   0.11057   0.16357   0.19911   0.23035
 Alpha virt. eigenvalues --    0.23889   0.25158   0.26788   0.27597   0.27987
 Alpha virt. eigenvalues --    0.29232   0.30990   0.31014   0.31777   0.31993

 Mulliken charges:
               1
     1  C   -0.298986
     2  C   -0.299054
     3  C   -0.475233
     4  H    0.150855
     5  H    0.144002
     6  H    0.157801
     7  H    0.143001
     8  H    0.150014
     9  H    0.157672
    10  H    0.161234
    11  C   -0.302652
    12  C   -0.300500
    13  C   -0.474304
    14  H    0.154151
    15  H    0.154044
    16  H    0.150714
    17  H    0.148616
    18  H    0.154486
    19  H    0.159852
    20  H    0.158262
    21  C   -0.170722
    22  C   -0.218379
    23  C   -0.170971
    24  C    0.159890
    25  C   -0.176385
    26  C   -0.219650
    27  H    0.226272
    28  H    0.224089
    29  H    0.276427
    30  H    0.279108
    31  H    0.224407
    32  N    0.490013
    33  O   -0.458948
    34  O   -0.459129
 Sum of Mulliken charges =  -0.00000

 Dipole moment (field-independent basis, Debye):
    X=              0.5800    Y=             -4.1282    Z=              2.9358  Tot=              5.0988
 Quadrupole moment (field-independent basis, Debye-Ang):
   XX=            -94.2696   YY=            -92.3438   ZZ=            -96.4904
   XY=              8.4093   XZ=             -8.8808   YZ=              1.3543

 Normal termination of Gaussian 16 at Thu May  6 10:44:32 2021.
