 Gaussian 16, Revision A.03,
 Gaussian 16:  EM64L-G16RevA.03 25-Dec-2016

 -------------
 #p 6-31g* mp2
 -------------

 ------------------------------------------------------
 Input file generated by CHIRIPA (05-May-2021 14:51:14)
 ------------------------------------------------------
 Symbolic Z-matrix:
 Charge =  0 Multiplicity = 1

                         Standard orientation:
 ---------------------------------------------------------------------
 Center     Atomic      Atomic             Coordinates (Angstroms)
 Number     Number       Type             X           Y           Z
 ---------------------------------------------------------------------
      1          6           0        4.245166   -0.351685   -0.343659
      2          6           0        4.863386   -1.432469    0.543862
      3          6           0        5.628585   -2.487560   -0.255543
      4          1           0        3.569958   -0.824528   -1.069923
      5          1           0        5.040399    0.133737   -0.926209
      6          1           0        4.067396   -1.914770    1.125586
      7          1           0        5.537054   -0.956980    1.268222
      8          1           0        6.442269   -2.025246   -0.823684
      9          1           0        4.964261   -2.988477   -0.967131
     10          1           0        6.062259   -3.250411    0.398556
     11          6           0        3.476908    0.710296    0.441009
     12          6           0        2.858688    1.791081   -0.446512
     13          6           0        2.093489    2.846172    0.352893
     14          1           0        2.681675    0.224874    1.023559
     15          1           0        4.152116    1.183139    1.167273
     16          1           0        2.185020    1.315591   -1.170872
     17          1           0        3.654677    2.273381   -1.028236
     18          1           0        2.757813    3.347089    1.064480
     19          1           0        1.279805    2.383857    0.921034
     20          1           0        1.659815    3.609023   -0.301206
     21          6           0       -4.436568   -0.646092    0.136544
     22          6           0       -5.815812   -0.051360   -0.149749
     23          6           0       -6.956963   -0.997043    0.226085
     24          1           0       -4.329465   -1.589863   -0.415517
     25          1           0       -4.368237   -0.898744    1.203734
     26          1           0       -5.881024    0.201373   -1.215813
     27          1           0       -5.919571    0.891201    0.402907
     28          1           0       -6.920164   -1.240331    1.292883
     29          1           0       -6.881398   -1.934080   -0.335033
     30          1           0       -7.933885   -0.551920    0.013129
     31          6           0       -3.285506    0.287481   -0.233894
     32          6           0       -1.906261   -0.307252    0.052400
     33          6           0       -0.765110    0.638431   -0.323436
     34          1           0       -3.353835    0.540132   -1.301083
     35          1           0       -3.392609    1.231251    0.318168
     36          1           0       -1.802503   -1.249813   -0.500257
     37          1           0       -1.841050   -0.559984    1.118462
     38          1           0       -0.840675    1.575468    0.237683
     39          1           0       -0.801910    0.881720   -1.390233
     40          1           0        0.211811    0.193308   -0.110479
 ---------------------------------------------------------------------

 SCF Done:  E(RHF) =  -470.731845550     A.U. after   11 cycles
 E2 =    -0.1583833351D+01 EUMP2 =    -0.47231567890041D+03

 The electronic state is 1-A.
 Alpha  occ. eigenvalues --  -11.21633 -11.21619 -11.21586 -11.21468 -11.21432
 Alpha  occ. eigenvalues --  -11.21372 -11.21372 -11.21311 -11.21091 -11.21085
 Alpha  occ. eigenvalues --  -11.21059 -11.20877  -1.08468  -1.08378  -1.03606
 Alpha  occ. eigenvalues --   -1.03426  -0.96076  -0.95864  -0.87072  -0.86910
 Alpha  occ. eigenvalues --   -0.79643  -0.79528  -0.78272  -0.78201  -0.65112
 Alpha  occ. eigenvalues --   -0.65041  -0.61099  -0.60870  -0.59321  -0.59250
 Alpha  occ. eigenvalues --   -0.57625  -0.57529  -0.55518  -0.55061  -0.52663
 Alpha  occ. eigenvalues --   -0.52616  -0.52453  -0.52301  -0.50205  -0.49627
 Alpha  occ. eigenvalues --   -0.47929  -0.47833  -0.46806  -0.46389  -0.45816
 Alpha  occ. eigenvalues --   -0.45759  -0.45724  -0.45608  -0.43792  -0.43707
 Alpha virt. eigenvalues --    0.21140   0.22998   0.23833   0.24976   0.26355
 Alpha virt. eigenvalues --    0.26489   0.26801   0.27507   0.27832   0.29205
 Alpha virt. eigenvalues --    0.30840   0.31315   0.31487   0.31962   0.32206

 Mulliken charges:
               1
     1  C   -0.298272
     2  C   -0.299580
     3  C   -0.475672
     4  H    0.149282
     5  H    0.149727
     6  H    0.151699
     7  H    0.151976
     8  H    0.155196
     9  H    0.155102
    10  H    0.160186
    11  C   -0.300925
    12  C   -0.303046
    13  C   -0.477300
    14  H    0.149788
    15  H    0.149968
    16  H    0.155734
    17  H    0.151867
    18  H    0.153500
    19  H    0.159761
    20  H    0.159080
    21  C   -0.298245
    22  C   -0.299647
    23  C   -0.475717
    24  H    0.149651
    25  H    0.149541
    26  H    0.151956
    27  H    0.152011
    28  H    0.155208
    29  H    0.155182
    30  H    0.160328
    31  C   -0.298819
    32  C   -0.300320
    33  C   -0.480686
    34  H    0.149595
    35  H    0.149908
    36  H    0.151654
    37  H    0.151666
    38  H    0.158761
    39  H    0.155184
    40  H    0.164719
 Sum of Mulliken charges =  -0.00000

 Dipole moment (field-independent basis, Debye):
    X=             -0.0426    Y=              0.0023    Z=             -0.0083  Tot=              0.0435
 Quadrupole moment (field-independent basis, Debye-Ang):
   XX=            -85.4242   YY=            -85.4591   ZZ=            -84.1304
   XY=              0.3264   XZ=              0.4892   YZ=              0.1845

 Normal termination of Gaussian 16 at Wed May  5 16:53:46 2021.
