 Gaussian 16, Revision A.03,
 Gaussian 16:  EM64L-G16RevA.03 25-Dec-2016

 -------------
 #p 6-31g* mp2
 -------------

 ------------------------------------------------------
 Input file generated by CHIRIPA (05-May-2021 14:55:25)
 ------------------------------------------------------
 Symbolic Z-matrix:
 Charge =  0 Multiplicity = 1

                         Standard orientation:
 ---------------------------------------------------------------------
 Center     Atomic      Atomic             Coordinates (Angstroms)
 Number     Number       Type             X           Y           Z
 ---------------------------------------------------------------------
      1          6           0       -2.527069   -1.534949   -2.010871
      2          6           0       -3.294873   -1.851215   -0.885271
      3          6           0       -3.212684   -1.071441    0.272203
      4          6           0       -2.348453    0.022353    0.269304
      5          6           0       -1.570592    0.363104   -0.836187
      6          6           0       -1.668892   -0.430746   -1.982786
      7          1           0       -2.597173   -2.146163   -2.905800
      8          1           0       -3.962196   -2.708166   -0.904226
      9          1           0       -3.795728   -1.293653    1.157697
     10          1           0       -0.914346    1.223545   -0.787197
     11          1           0       -1.071415   -0.182757   -2.855464
     12          7           0       -2.252915    0.855315    1.488913
     13          8           0       -1.483949    1.813723    1.460951
     14          8           0       -2.948808    0.534010    2.449712
     15          6           0        3.192137   -0.594115   -0.167880
     16          6           0        3.791848   -1.221348    1.091053
     17          6           0        4.118539   -2.704546    0.914450
     18          1           0        2.280491   -1.141495   -0.443964
     19          1           0        3.896240   -0.718621   -1.002225
     20          1           0        3.087419   -1.094474    1.923100
     21          1           0        4.702066   -0.672291    1.364282
     22          1           0        4.839305   -2.846256    0.102651
     23          1           0        3.215484   -3.270839    0.664644
     24          1           0        4.546130   -3.132805    1.826382
     25          6           0        2.860212    0.888335   -0.006963
     26          6           0        2.260500    1.515567   -1.265896
     27          6           0        1.933808    2.998765   -1.089292
     28          1           0        2.156108    1.012841    0.827382
     29          1           0        3.771857    1.435715    0.269121
     30          1           0        1.350282    0.966510   -1.539125
     31          1           0        2.964928    1.388694   -2.097941
     32          1           0        2.836864    3.565059   -0.839486
     33          1           0        1.213042    3.140476   -0.277495
     34          1           0        1.506218    3.427025   -2.001225
 ---------------------------------------------------------------------

 SCF Done:  E(RHF) =  -669.535728462     A.U. after   15 cycles
 E2 =    -0.2092553484D+01 EUMP2 =    -0.67162828194632D+03

 The electronic state is 1-A.
 Alpha  occ. eigenvalues --  -20.60875 -20.60869 -15.85919 -11.31242 -11.27821
 Alpha  occ. eigenvalues --  -11.27782 -11.27554 -11.26828 -11.26814 -11.21885
 Alpha  occ. eigenvalues --  -11.21560 -11.21427 -11.21340 -11.21106 -11.21080
 Alpha  occ. eigenvalues --   -1.59941  -1.39497  -1.19421  -1.08821  -1.08488
 Alpha  occ. eigenvalues --   -1.04823  -1.03610  -0.96026  -0.95660  -0.87038
 Alpha  occ. eigenvalues --   -0.86217  -0.82499  -0.79681  -0.78294  -0.77547
 Alpha  occ. eigenvalues --   -0.72140  -0.71261  -0.70541  -0.65210  -0.65064
 Alpha  occ. eigenvalues --   -0.64772  -0.62251  -0.60914  -0.59402  -0.57642
 Alpha  occ. eigenvalues --   -0.55386  -0.55223  -0.53154  -0.52894  -0.52737
 Alpha  occ. eigenvalues --   -0.52435  -0.49956  -0.48896  -0.48890  -0.47981
 Alpha  occ. eigenvalues --   -0.46715  -0.45845  -0.45726  -0.44902  -0.43843
 Alpha  occ. eigenvalues --   -0.37401  -0.36402
 Alpha virt. eigenvalues --    0.04941   0.11214   0.16374   0.19971   0.22969
 Alpha virt. eigenvalues --    0.23895   0.25866   0.26761   0.27658   0.28041
 Alpha virt. eigenvalues --    0.29221   0.30401   0.31512   0.31667   0.32309

 Mulliken charges:
               1
     1  C   -0.170530
     2  C   -0.218842
     3  C   -0.170489
     4  C    0.157017
     5  C   -0.174990
     6  C   -0.221252
     7  H    0.226050
     8  H    0.223752
     9  H    0.275708
    10  H    0.284265
    11  H    0.225217
    12  N    0.488467
    13  O   -0.462564
    14  O   -0.459485
    15  C   -0.298593
    16  C   -0.300274
    17  C   -0.475655
    18  H    0.147465
    19  H    0.147591
    20  H    0.155688
    21  H    0.152684
    22  H    0.154024
    23  H    0.153920
    24  H    0.161190
    25  C   -0.301149
    26  C   -0.302654
    27  C   -0.484918
    28  H    0.160498
    29  H    0.151516
    30  H    0.138693
    31  H    0.151975
    32  H    0.158813
    33  H    0.170860
    34  H    0.156003
 Sum of Mulliken charges =  -0.00000

 Dipole moment (field-independent basis, Debye):
    X=             -0.3395    Y=             -2.8829    Z=             -4.1478  Tot=              5.0626
 Quadrupole moment (field-independent basis, Debye-Ang):
   XX=            -90.3778   YY=            -94.5666   ZZ=            -96.5940
   XY=             10.1125   XZ=              8.3845   YZ=             -2.1948

 Normal termination of Gaussian 16 at Wed May  5 16:08:27 2021.
