 Gaussian 16, Revision A.03,
 Gaussian 16:  EM64L-G16RevA.03 25-Dec-2016

 -------------
 #p 6-31g* mp2
 -------------

 ------------------------------------------------------
 Input file generated by CHIRIPA (05-May-2021 14:55:23)
 ------------------------------------------------------
 Symbolic Z-matrix:
 Charge =  0 Multiplicity = 1

                         Standard orientation:
 ---------------------------------------------------------------------
 Center     Atomic      Atomic             Coordinates (Angstroms)
 Number     Number       Type             X           Y           Z
 ---------------------------------------------------------------------
      1          6           0        0.993806   -2.356995   -0.190221
      2          6           0        2.285760   -2.541428    0.313128
      3          6           0        3.178078   -1.467870    0.389214
      4          6           0        2.743274   -0.217918   -0.048799
      5          6           0        1.462504   -0.002330   -0.555197
      6          6           0        0.587019   -1.090267   -0.622016
      7          1           0        0.307170   -3.196545   -0.245727
      8          1           0        2.604406   -3.524064    0.649188
      9          1           0        4.183944   -1.582564    0.774568
     10          1           0        1.173623    0.989022   -0.882591
     11          1           0       -0.415734   -0.944090   -1.013377
     12          7           0        3.679022    0.926221    0.026845
     13          8           0        3.271677    2.017459   -0.365466
     14          8           0        4.802087    0.710096    0.477013
     15          6           0       -3.808084   -0.008986    0.321636
     16          6           0       -3.593531   -1.379687   -0.321118
     17          6           0       -4.589664   -2.427946    0.175538
     18          1           0       -3.726830   -0.106046    1.412930
     19          1           0       -4.832469    0.329615    0.113358
     20          1           0       -2.569410   -1.714982   -0.112861
     21          1           0       -3.675114   -1.279318   -1.411020
     22          1           0       -5.616375   -2.119259   -0.046220
     23          1           0       -4.504390   -2.557399    1.259314
     24          1           0       -4.418209   -3.400241   -0.296802
     25          6           0       -2.819890    1.049590   -0.164796
     26          6           0       -3.034442    2.420291    0.477958
     27          6           0       -2.038310    3.468550   -0.018699
     28          1           0       -1.795504    0.710990    0.043482
     29          1           0       -2.901142    1.146650   -1.256090
     30          1           0       -2.952858    2.319921    1.567859
     31          1           0       -4.058562    2.755585    0.269700
     32          1           0       -2.123584    3.598002   -1.102475
     33          1           0       -1.011597    3.159863    0.203059
     34          1           0       -2.209764    4.440845    0.453641
 ---------------------------------------------------------------------

 SCF Done:  E(RHF) =  -669.535122052     A.U. after   15 cycles
 E2 =    -0.2092961934D+01 EUMP2 =    -0.67162808398618D+03

 The electronic state is 1-A.
 Alpha  occ. eigenvalues --  -20.60751 -20.60746 -15.85803 -11.31171 -11.27742
 Alpha  occ. eigenvalues --  -11.27719 -11.27466 -11.26759 -11.26659 -11.22643
 Alpha  occ. eigenvalues --  -11.22202 -11.22145 -11.22076 -11.21913 -11.21387
 Alpha  occ. eigenvalues --   -1.59826  -1.39380  -1.19340  -1.09213  -1.08731
 Alpha  occ. eigenvalues --   -1.04739  -1.04228  -0.96649  -0.95569  -0.87666
 Alpha  occ. eigenvalues --   -0.86141  -0.82407  -0.80329  -0.79080  -0.77426
 Alpha  occ. eigenvalues --   -0.72021  -0.71150  -0.70446  -0.65902  -0.64989
 Alpha  occ. eigenvalues --   -0.64698  -0.62081  -0.61614  -0.60046  -0.58276
 Alpha  occ. eigenvalues --   -0.55922  -0.55237  -0.53349  -0.53126  -0.53044
 Alpha  occ. eigenvalues --   -0.52802  -0.50595  -0.48795  -0.48777  -0.48617
 Alpha  occ. eigenvalues --   -0.47360  -0.46518  -0.46441  -0.44785  -0.44490
 Alpha  occ. eigenvalues --   -0.37316  -0.36317
 Alpha virt. eigenvalues --    0.05048   0.11210   0.16427   0.20021   0.22653
 Alpha virt. eigenvalues --    0.22785   0.25351   0.25786   0.26618   0.27275
 Alpha virt. eigenvalues --    0.30074   0.30676   0.30978   0.31216   0.31682

 Mulliken charges:
               1
     1  C   -0.173833
     2  C   -0.218457
     3  C   -0.171045
     4  C    0.158747
     5  C   -0.174749
     6  C   -0.223608
     7  H    0.225943
     8  H    0.223347
     9  H    0.275544
    10  H    0.277497
    11  H    0.234079
    12  N    0.487973
    13  O   -0.460369
    14  O   -0.460490
    15  C   -0.297060
    16  C   -0.304870
    17  C   -0.475784
    18  H    0.152983
    19  H    0.153468
    20  H    0.143757
    21  H    0.152544
    22  H    0.159323
    23  H    0.157601
    24  H    0.159530
    25  C   -0.306999
    26  C   -0.299768
    27  C   -0.478343
    28  H    0.147700
    29  H    0.148739
    30  H    0.154691
    31  H    0.153831
    32  H    0.155265
    33  H    0.157995
    34  H    0.164815
 Sum of Mulliken charges =  -0.00000

 Dipole moment (field-independent basis, Debye):
    X=             -3.4618    Y=             -3.9356    Z=             -0.1999  Tot=              5.2453
 Quadrupole moment (field-independent basis, Debye-Ang):
   XX=           -109.9877   YY=            -91.8570   ZZ=            -94.2223
   XY=            -13.7103   XZ=              1.4342   YZ=             -1.0063

 Normal termination of Gaussian 16 at Thu May  6 09:27:39 2021.
