 Gaussian 16, Revision A.03,
 Gaussian 16:  EM64L-G16RevA.03 25-Dec-2016

 -------------
 #p 6-31g* mp2
 -------------

 ------------------------------------------------------
 Input file generated by CHIRIPA (05-May-2021 14:57:21)
 ------------------------------------------------------
 Symbolic Z-matrix:
 Charge =  0 Multiplicity = 1

                         Standard orientation:
 ---------------------------------------------------------------------
 Center     Atomic      Atomic             Coordinates (Angstroms)
 Number     Number       Type             X           Y           Z
 ---------------------------------------------------------------------
      1          6           0        5.228882    0.865400   -0.353587
      2          6           0        4.642163    0.994898    0.909549
      3          6           0        3.460899    0.313249    1.216986
      4          6           0        2.890764   -0.493038    0.233047
      5          6           0        3.451240   -0.642444   -1.034563
      6          6           0        4.632598    0.048583   -1.319908
      7          1           0        6.146553    1.398564   -0.583831
      8          1           0        5.103029    1.628553    1.661965
      9          1           0        2.985429    0.395515    2.186820
     10          1           0        2.968479   -1.281440   -1.763977
     11          1           0        5.086024   -0.053872   -2.301720
     12          7           0        1.640162   -1.219633    0.546823
     13          8           0        1.157583   -1.923779   -0.337448
     14          8           0        1.166200   -1.071235    1.671089
     15          6           0       -1.981313    2.631039   -0.336221
     16          6           0       -3.192076    2.494144    0.350680
     17          6           0       -3.819125    1.248007    0.442882
     18          6           0       -3.204726    0.155015   -0.166359
     19          6           0       -1.998739    0.259321   -0.857737
     20          6           0       -1.389552    1.515158   -0.937178
     21          1           0       -1.501144    3.602835   -0.402889
     22          1           0       -3.653939    3.359014    0.818361
     23          1           0       -4.756745    1.113714    0.968480
     24          1           0       -1.562512   -0.621136   -1.313720
     25          1           0       -0.449288    1.618505   -1.471282
     26          7           0       -3.859101   -1.169348   -0.075503
     27          8           0       -3.297400   -2.116817   -0.620878
     28          8           0       -4.921309   -1.234840    0.539364
 ---------------------------------------------------------------------

 SCF Done:  E(RHF) =  -868.337685774     A.U. after   16 cycles
 E2 =    -0.2599871173D+01 EUMP2 =    -0.87093755694607D+03

 The electronic state is 1-A.
 Alpha  occ. eigenvalues --  -20.61225 -20.61185 -20.59792 -20.59739 -15.86249
 Alpha  occ. eigenvalues --  -15.84827 -11.31666 -11.30281 -11.28236 -11.28216
 Alpha  occ. eigenvalues --  -11.27962 -11.27244 -11.27231 -11.26964 -11.26808
 Alpha  occ. eigenvalues --  -11.26789 -11.26013 -11.25984  -1.60274  -1.58841
 Alpha  occ. eigenvalues --   -1.39827  -1.38389  -1.19837  -1.18508  -1.09218
 Alpha  occ. eigenvalues --   -1.07909  -1.05238  -1.03939  -0.96041  -0.94712
 Alpha  occ. eigenvalues --   -0.86630  -0.85341  -0.82866  -0.81551  -0.77915
 Alpha  occ. eigenvalues --   -0.76551  -0.72448  -0.71617  -0.71053  -0.70925
 Alpha  occ. eigenvalues --   -0.70156  -0.69648  -0.65478  -0.65226  -0.64181
 Alpha  occ. eigenvalues --   -0.63981  -0.62576  -0.61270  -0.55721  -0.54503
 Alpha  occ. eigenvalues --   -0.53580  -0.53318  -0.52257  -0.52052  -0.49211
 Alpha  occ. eigenvalues --   -0.49203  -0.47833  -0.47784  -0.45214  -0.43775
 Alpha  occ. eigenvalues --   -0.37822  -0.36851  -0.36533  -0.35535
 Alpha virt. eigenvalues --    0.04581   0.05996   0.10798   0.12114   0.16058
 Alpha virt. eigenvalues --    0.17417   0.20986   0.22106   0.26903   0.27734
 Alpha virt. eigenvalues --    0.28039   0.29088   0.30608   0.31601   0.32118

 Mulliken charges:
               1
     1  C   -0.171144
     2  C   -0.218918
     3  C   -0.171497
     4  C    0.156566
     5  C   -0.174088
     6  C   -0.218813
     7  H    0.226850
     8  H    0.224608
     9  H    0.276997
    10  H    0.276086
    11  H    0.224750
    12  N    0.487172
    13  O   -0.461267
    14  O   -0.454969
    15  C   -0.170454
    16  C   -0.219395
    17  C   -0.170139
    18  C    0.158746
    19  C   -0.166131
    20  C   -0.222667
    21  H    0.220289
    22  H    0.219637
    23  H    0.273689
    24  H    0.288125
    25  H    0.217149
    26  N    0.488195
    27  O   -0.454031
    28  O   -0.465347
 Sum of Mulliken charges =  -0.00000

 Dipole moment (field-independent basis, Debye):
    X=              6.9047    Y=              6.9778    Z=             -1.3710  Tot=              9.9119
 Quadrupole moment (field-independent basis, Debye-Ang):
   XX=            -92.5332   YY=           -105.8697   ZZ=           -100.2249
   XY=            -10.5083   XZ=             -3.7180   YZ=              3.7768

 Normal termination of Gaussian 16 at Thu May  6 09:37:37 2021.
