 Gaussian 16, Revision A.03,
 Gaussian 16:  EM64L-G16RevA.03 25-Dec-2016

 -------------
 #p 6-31g* mp2
 -------------

 ------------------------------------------------------
 Input file generated by CHIRIPA (05-May-2021 14:57:26)
 ------------------------------------------------------
 Symbolic Z-matrix:
 Charge =  0 Multiplicity = 1

                         Standard orientation:
 ---------------------------------------------------------------------
 Center     Atomic      Atomic             Coordinates (Angstroms)
 Number     Number       Type             X           Y           Z
 ---------------------------------------------------------------------
      1          6           0       -1.852463   -1.226942    1.615452
      2          6           0       -2.120662   -1.833573    0.383953
      3          6           0       -3.065133   -1.283472   -0.487776
      4          6           0       -3.725849   -0.120766   -0.094252
      5          6           0       -3.480676    0.507041    1.126009
      6          6           0       -2.532128   -0.060628    1.981904
      7          1           0       -1.117191   -1.661098    2.286481
      8          1           0       -1.594347   -2.739410    0.096733
      9          1           0       -3.292213   -1.732451   -1.447083
     10          1           0       -4.021367    1.409365    1.384628
     11          1           0       -2.325879    0.412654    2.937681
     12          7           0       -4.727877    0.470900   -1.008731
     13          8           0       -5.296431    1.495803   -0.638653
     14          8           0       -4.925738   -0.101458   -2.078261
     15          6           0        1.249191    0.937225    0.654845
     16          6           0        2.256024    1.892086    0.478628
     17          6           0        3.540419    1.505168    0.084711
     18          6           0        3.784171    0.148775   -0.125231
     19          6           0        2.802117   -0.826357    0.042037
     20          6           0        1.524966   -0.416563    0.436372
     21          1           0        0.254256    1.246678    0.961011
     22          1           0        2.044721    2.944155    0.647582
     23          1           0        4.338473    2.223405   -0.059035
     24          1           0        3.042974   -1.867725   -0.133916
     25          1           0        0.744997   -1.160319    0.572457
     26          7           0        5.140068   -0.272946   -0.542475
     27          8           0        5.329299   -1.474168   -0.721077
     28          8           0        5.987915    0.605712   -0.683009
 ---------------------------------------------------------------------

 SCF Done:  E(RHF) =  -868.336389085     A.U. after   16 cycles
 E2 =    -0.2602376001D+01 EUMP2 =    -0.87093876508598D+03

 The electronic state is 1-A.
 Alpha  occ. eigenvalues --  -20.61660 -20.61651 -20.61062 -20.61053 -15.86722
 Alpha  occ. eigenvalues --  -15.86116 -11.32355 -11.31521 -11.28978 -11.28936
 Alpha  occ. eigenvalues --  -11.28798 -11.28132 -11.28083 -11.28058 -11.28033
 Alpha  occ. eigenvalues --  -11.27793 -11.27097 -11.27083  -1.60729  -1.60135
 Alpha  occ. eigenvalues --   -1.40274  -1.39688  -1.20589  -1.19699  -1.09959
 Alpha  occ. eigenvalues --   -1.09073  -1.06012  -1.05121  -0.96727  -0.95903
 Alpha  occ. eigenvalues --   -0.87411  -0.86513  -0.83529  -0.82749  -0.78514
 Alpha  occ. eigenvalues --   -0.77805  -0.72934  -0.72336  -0.72057  -0.71708
 Alpha  occ. eigenvalues --   -0.71460  -0.70792  -0.66246  -0.66029  -0.65349
 Alpha  occ. eigenvalues --   -0.65127  -0.63321  -0.62488  -0.56537  -0.55600
 Alpha  occ. eigenvalues --   -0.54361  -0.54078  -0.53436  -0.53144  -0.49714
 Alpha  occ. eigenvalues --   -0.49671  -0.49096  -0.49086  -0.45619  -0.45085
 Alpha  occ. eigenvalues --   -0.38582  -0.37735  -0.37554  -0.36725
 Alpha virt. eigenvalues --    0.03979   0.04753   0.09797   0.10918   0.15367
 Alpha virt. eigenvalues --    0.16233   0.19423   0.21880   0.25279   0.26666
 Alpha virt. eigenvalues --    0.27994   0.28424   0.29805   0.30564   0.31916

 Mulliken charges:
               1
     1  C   -0.180717
     2  C   -0.221181
     3  C   -0.168004
     4  C    0.159584
     5  C   -0.171714
     6  C   -0.225560
     7  H    0.229746
     8  H    0.226545
     9  H    0.280774
    10  H    0.279327
    11  H    0.227474
    12  N    0.487949
    13  O   -0.457884
    14  O   -0.456343
    15  C   -0.175878
    16  C   -0.218718
    17  C   -0.170297
    18  C    0.158951
    19  C   -0.172163
    20  C   -0.221392
    21  H    0.227755
    22  H    0.224637
    23  H    0.276756
    24  H    0.274002
    25  H    0.218283
    26  N    0.488064
    27  O   -0.460837
    28  O   -0.459158
 Sum of Mulliken charges =  -0.00000

 Dipole moment (field-independent basis, Debye):
    X=             -1.5999    Y=             -0.5411    Z=              4.5935  Tot=              4.8941
 Quadrupole moment (field-independent basis, Debye-Ang):
   XX=           -166.7284   YY=            -96.8507   ZZ=           -104.6879
   XY=             13.5008   XZ=             -6.7268   YZ=              2.8105

 Normal termination of Gaussian 16 at Thu May  6 19:44:41 2021.
