 Gaussian 16, Revision A.03,
 Gaussian 16:  EM64L-G16RevA.03 25-Dec-2016

 -------------
 #p 6-31g* mp2
 -------------

 ------------------------------------------------------
 Input file generated by CHIRIPA (05-May-2021 14:55:24)
 ------------------------------------------------------
 Symbolic Z-matrix:
 Charge =  0 Multiplicity = 1

                         Standard orientation:
 ---------------------------------------------------------------------
 Center     Atomic      Atomic             Coordinates (Angstroms)
 Number     Number       Type             X           Y           Z
 ---------------------------------------------------------------------
      1          6           0       -5.430283    0.224867    0.168251
      2          6           0       -4.486976    1.082497    0.743719
      3          6           0       -3.122157    0.788458    0.670501
      4          6           0       -2.734082   -0.376918    0.011269
      5          6           0       -3.649771   -1.251297   -0.572053
      6          6           0       -5.009412   -0.937244   -0.486643
      7          1           0       -6.488496    0.461057    0.229864
      8          1           0       -4.810939    1.985705    1.252942
      9          1           0       -2.370570    1.434846    1.107212
     10          1           0       -3.296374   -2.144314   -1.073100
     11          1           0       -5.739763   -1.605131   -0.934481
     12          7           0       -1.291950   -0.698797   -0.072696
     13          8           0       -0.975766   -1.731695   -0.659030
     14          8           0       -0.505099    0.087906    0.449414
     15          6           0        3.192645    0.850343    0.109067
     16          6           0        3.206769    2.178427   -0.648548
     17          6           0        1.977484    3.039171   -0.355682
     18          1           0        2.282634    0.294449   -0.155140
     19          1           0        3.133635    1.052069    1.187594
     20          1           0        3.267132    1.974281   -1.725254
     21          1           0        4.116947    2.731141   -0.382654
     22          1           0        1.915751    3.271939    0.712312
     23          1           0        1.061107    2.510779   -0.637918
     24          1           0        2.008092    3.983808   -0.907573
     25          6           0        4.415066   -0.021242   -0.173343
     26          6           0        4.400943   -1.349325    0.584272
     27          6           0        5.630228   -2.210070    0.291405
     28          1           0        4.474077   -0.222967   -1.251869
     29          1           0        5.325078    0.534653    0.090864
     30          1           0        3.490765   -1.902038    0.318378
     31          1           0        4.340580   -1.145179    1.660978
     32          1           0        6.546605   -1.681678    0.573642
     33          1           0        5.691961   -2.442838   -0.776588
     34          1           0        5.599620   -3.154707    0.843296
 ---------------------------------------------------------------------

 SCF Done:  E(RHF) =  -669.536510701     A.U. after   15 cycles
 E2 =    -0.2091601473D+01 EUMP2 =    -0.67162811217397D+03

 The electronic state is 1-A.
 Alpha  occ. eigenvalues --  -20.61098 -20.61081 -15.86095 -11.31363 -11.27920
 Alpha  occ. eigenvalues --  -11.27911 -11.27648 -11.26913 -11.26902 -11.20344
 Alpha  occ. eigenvalues --  -11.20343 -11.20079 -11.20067 -11.19878 -11.19640
 Alpha  occ. eigenvalues --   -1.60140  -1.39697  -1.19526  -1.08942  -1.07058
 Alpha  occ. eigenvalues --   -1.04912  -1.02298  -0.95792  -0.94745  -0.86316
 Alpha  occ. eigenvalues --   -0.85772  -0.82628  -0.78364  -0.77687  -0.76817
 Alpha  occ. eigenvalues --   -0.72311  -0.71443  -0.70634  -0.65182  -0.64915
 Alpha  occ. eigenvalues --   -0.63688  -0.62258  -0.59705  -0.58118  -0.56354
 Alpha  occ. eigenvalues --   -0.55421  -0.54034  -0.53248  -0.53003  -0.51514
 Alpha  occ. eigenvalues --   -0.51180  -0.49151  -0.49084  -0.48643  -0.46682
 Alpha  occ. eigenvalues --   -0.45434  -0.45084  -0.44398  -0.44119  -0.42505
 Alpha  occ. eigenvalues --   -0.37502  -0.36510
 Alpha virt. eigenvalues --    0.04811   0.11145   0.16298   0.21256   0.24209
 Alpha virt. eigenvalues --    0.25438   0.27177   0.27859   0.28159   0.29036
 Alpha virt. eigenvalues --    0.29241   0.30873   0.32121   0.32673   0.32946

 Mulliken charges:
               1
     1  C   -0.170380
     2  C   -0.218569
     3  C   -0.170847
     4  C    0.157417
     5  C   -0.170538
     6  C   -0.218631
     7  H    0.226285
     8  H    0.224264
     9  H    0.276676
    10  H    0.275882
    11  H    0.224032
    12  N    0.489498
    13  O   -0.458951
    14  O   -0.459307
    15  C   -0.307785
    16  C   -0.298071
    17  C   -0.476867
    18  H    0.180368
    19  H    0.144703
    20  H    0.148131
    21  H    0.145382
    22  H    0.151070
    23  H    0.164990
    24  H    0.151223
    25  C   -0.297249
    26  C   -0.300190
    27  C   -0.474871
    28  H    0.146528
    29  H    0.143128
    30  H    0.160941
    31  H    0.149239
    32  H    0.151607
    33  H    0.153590
    34  H    0.157300
 Sum of Mulliken charges =  -0.00000

 Dipole moment (field-independent basis, Debye):
    X=             -5.5498    Y=              0.9566    Z=              0.3116  Tot=              5.6403
 Quadrupole moment (field-independent basis, Debye-Ang):
   XX=            -69.4082   YY=            -93.5938   ZZ=            -93.6765
   XY=              0.2206   XZ=              0.2256   YZ=              2.8734

 Normal termination of Gaussian 16 at Thu May  6 12:41:32 2021.
