 Gaussian 16, Revision A.03,
 Gaussian 16:  EM64L-G16RevA.03 25-Dec-2016

 -------------
 #p 6-31g* mp2
 -------------

 ------------------------------------------------------
 Input file generated by CHIRIPA (05-May-2021 14:53:14)
 ------------------------------------------------------
 Symbolic Z-matrix:
 Charge =  0 Multiplicity = 1

                         Standard orientation:
 ---------------------------------------------------------------------
 Center     Atomic      Atomic             Coordinates (Angstroms)
 Number     Number       Type             X           Y           Z
 ---------------------------------------------------------------------
      1          6           0        3.089846    1.027261   -0.568062
      2          6           0        2.304282    1.992942    0.319820
      3          6           0        1.328125    2.863222   -0.472344
      4          1           0        3.640194    1.601322   -1.326030
      5          1           0        2.384345    0.385264   -1.113500
      6          1           0        3.011095    2.631997    0.864466
      7          1           0        1.755892    1.416528    1.075883
      8          1           0        0.600555    2.240763   -1.003181
      9          1           0        1.862890    3.463139   -1.215799
     10          1           0        0.777124    3.546032    0.181895
     11          6           0        4.069870    0.150430    0.209401
     12          6           0        4.855435   -0.815251   -0.678481
     13          6           0        5.831592   -1.685531    0.113683
     14          1           0        4.775371    0.792426    0.754840
     15          1           0        3.519522   -0.423631    0.967369
     16          1           0        5.403825   -0.238837   -1.434543
     17          1           0        4.148621   -1.454307   -1.223126
     18          1           0        5.296826   -2.285449    0.857139
     19          1           0        6.559162   -1.063073    0.644521
     20          1           0        6.382592   -2.368341   -0.540556
     21          6           0       -0.556434   -1.462558    0.724733
     22          6           0       -0.915857   -0.209011    1.230657
     23          6           0       -2.154593    0.356136    0.913342
     24          6           0       -3.013351   -0.363115    0.083582
     25          6           0       -2.684052   -1.614008   -0.436146
     26          6           0       -1.440121   -2.159826   -0.105590
     27          1           0        0.407864   -1.894070    0.976374
     28          1           0       -0.231580    0.334766    1.875727
     29          1           0       -2.458261    1.324865    1.291190
     30          1           0       -3.387302   -2.132153   -1.076758
     31          1           0       -1.163652   -3.133527   -0.499946
     32          7           0       -4.327495    0.224950   -0.259355
     33          8           0       -5.066223   -0.428908   -0.992422
     34          8           0       -4.593910    1.328597    0.211414
 ---------------------------------------------------------------------

 SCF Done:  E(RHF) =  -669.535446851     A.U. after   15 cycles
 E2 =    -0.2092184227D+01 EUMP2 =    -0.67162763107749D+03

 The electronic state is 1-A.
 Alpha  occ. eigenvalues --  -20.60791 -20.60786 -15.85845 -11.31234 -11.27804
 Alpha  occ. eigenvalues --  -11.27800 -11.27561 -11.26827 -11.26811 -11.22376
 Alpha  occ. eigenvalues --  -11.22310 -11.22188 -11.22076 -11.21723 -11.21595
 Alpha  occ. eigenvalues --   -1.59866  -1.39419  -1.19411  -1.09172  -1.08801
 Alpha  occ. eigenvalues --   -1.04818  -1.04216  -0.96644  -0.95631  -0.87654
 Alpha  occ. eigenvalues --   -0.86215  -0.82462  -0.80291  -0.78993  -0.77504
 Alpha  occ. eigenvalues --   -0.72063  -0.71189  -0.70517  -0.65870  -0.65061
 Alpha  occ. eigenvalues --   -0.64801  -0.62233  -0.61547  -0.60013  -0.58262
 Alpha  occ. eigenvalues --   -0.55946  -0.55303  -0.53324  -0.53137  -0.53057
 Alpha  occ. eigenvalues --   -0.52911  -0.50575  -0.48836  -0.48816  -0.48582
 Alpha  occ. eigenvalues --   -0.47323  -0.46531  -0.46444  -0.44819  -0.44481
 Alpha  occ. eigenvalues --   -0.37388  -0.36400
 Alpha virt. eigenvalues --    0.05016   0.11142   0.16452   0.19248   0.22705
 Alpha virt. eigenvalues --    0.23641   0.25187   0.26170   0.26668   0.28114
 Alpha virt. eigenvalues --    0.29449   0.30115   0.30981   0.31310   0.31920

 Mulliken charges:
               1
     1  C   -0.299779
     2  C   -0.299886
     3  C   -0.478193
     4  H    0.153560
     5  H    0.150377
     6  H    0.154461
     7  H    0.140629
     8  H    0.160031
     9  H    0.158591
    10  H    0.159929
    11  C   -0.297286
    12  C   -0.299970
    13  C   -0.475644
    14  H    0.152499
    15  H    0.140712
    16  H    0.155184
    17  H    0.150078
    18  H    0.152548
    19  H    0.157208
    20  H    0.162392
    21  C   -0.172981
    22  C   -0.218377
    23  C   -0.171833
    24  C    0.158466
    25  C   -0.170837
    26  C   -0.218713
    27  H    0.226187
    28  H    0.227194
    29  H    0.276272
    30  H    0.275837
    31  H    0.223657
    32  N    0.488075
    33  O   -0.460331
    34  O   -0.460057
 Sum of Mulliken charges =  -0.00000

 Dipole moment (field-independent basis, Debye):
    X=              4.7055    Y=             -2.0110    Z=              1.1056  Tot=              5.2352
 Quadrupole moment (field-independent basis, Debye-Ang):
   XX=           -122.5792   YY=            -90.0498   ZZ=            -93.8079
   XY=              6.7756   XZ=             -3.2758   YZ=              2.0784

 Normal termination of Gaussian 16 at Thu May  6 05:51:14 2021.
