 Gaussian 16, Revision A.03,
 Gaussian 16:  EM64L-G16RevA.03 25-Dec-2016

 -------------
 #p 6-31g* mp2
 -------------

 ------------------------------------------------------
 Input file generated by CHIRIPA (05-May-2021 14:57:23)
 ------------------------------------------------------
 Symbolic Z-matrix:
 Charge =  0 Multiplicity = 1

                         Standard orientation:
 ---------------------------------------------------------------------
 Center     Atomic      Atomic             Coordinates (Angstroms)
 Number     Number       Type             X           Y           Z
 ---------------------------------------------------------------------
      1          6           0        1.833745    1.864024   -0.048568
      2          6           0        2.104864    1.047484   -1.151418
      3          6           0        3.165895    0.137752   -1.117536
      4          6           0        3.938924    0.070546    0.040565
      5          6           0        3.693981    0.870587    1.155566
      6          6           0        2.627769    1.773130    1.099380
      7          1           0        1.007498    2.567933   -0.083551
      8          1           0        1.489886    1.115914   -2.044259
      9          1           0        3.398004   -0.506295   -1.957029
     10          1           0        4.324638    0.779613    2.031587
     11          1           0        2.419543    2.406016    1.957367
     12          7           0        5.064933   -0.888741    0.088240
     13          8           0        5.731099   -0.928734    1.120354
     14          8           0        5.260010   -1.582474   -0.907409
     15          6           0       -1.271878   -0.374398   -0.465147
     16          6           0       -1.971814   -1.499896   -0.018086
     17          6           0       -3.346871   -1.430691    0.224764
     18          6           0       -3.993243   -0.214557    0.009099
     19          6           0       -3.323682    0.924285   -0.435891
     20          6           0       -1.948852    0.831974   -0.672258
     21          1           0       -0.203789   -0.437132   -0.651281
     22          1           0       -1.448667   -2.438093    0.143620
     23          1           0       -3.913271   -2.286590    0.571243
     24          1           0       -3.872581    1.845691   -0.588009
     25          1           0       -1.407844    1.707667   -1.019412
     26          7           0       -5.448835   -0.129063    0.262762
     27          8           0       -5.995157    0.954033    0.065096
     28          8           0       -6.015843   -1.146767    0.654445
 ---------------------------------------------------------------------

 SCF Done:  E(RHF) =  -868.336245799     A.U. after   16 cycles
 E2 =    -0.2601848148D+01 EUMP2 =    -0.87093809394690D+03

 The electronic state is 1-A.
 Alpha  occ. eigenvalues --  -20.61640 -20.61630 -20.61157 -20.61146 -15.86700
 Alpha  occ. eigenvalues --  -15.86215 -11.32285 -11.31651 -11.28942 -11.28843
 Alpha  occ. eigenvalues --  -11.28723 -11.28321 -11.28217 -11.28016 -11.27895
 Alpha  occ. eigenvalues --  -11.27868 -11.27402 -11.27179  -1.60710  -1.60230
 Alpha  occ. eigenvalues --   -1.40256  -1.39781  -1.20512  -1.19849  -1.09879
 Alpha  occ. eigenvalues --   -1.09215  -1.05940  -1.05281  -0.96658  -0.96034
 Alpha  occ. eigenvalues --   -0.87335  -0.86675  -0.83476  -0.82880  -0.78475
 Alpha  occ. eigenvalues --   -0.77926  -0.72913  -0.72431  -0.72041  -0.71628
 Alpha  occ. eigenvalues --   -0.71556  -0.70947  -0.66165  -0.65976  -0.65490
 Alpha  occ. eigenvalues --   -0.65272  -0.63248  -0.62634  -0.56489  -0.55890
 Alpha  occ. eigenvalues --   -0.54103  -0.53984  -0.53575  -0.53378  -0.49689
 Alpha  occ. eigenvalues --   -0.49653  -0.49196  -0.49179  -0.45613  -0.45171
 Alpha  occ. eigenvalues --   -0.38552  -0.37756  -0.37537  -0.36895
 Alpha virt. eigenvalues --    0.04010   0.04668   0.09966   0.10699   0.15396
 Alpha virt. eigenvalues --    0.16112   0.18366   0.22114   0.24818   0.26148
 Alpha virt. eigenvalues --    0.28055   0.29384   0.29651   0.31080   0.31774

 Mulliken charges:
               1
     1  C   -0.169876
     2  C   -0.235134
     3  C   -0.171634
     4  C    0.159001
     5  C   -0.168800
     6  C   -0.217432
     7  H    0.225887
     8  H    0.224539
     9  H    0.278969
    10  H    0.279942
    11  H    0.228945
    12  N    0.487918
    13  O   -0.456870
    14  O   -0.458415
    15  C   -0.174616
    16  C   -0.220837
    17  C   -0.169352
    18  C    0.157959
    19  C   -0.169885
    20  C   -0.225627
    21  H    0.235001
    22  H    0.227145
    23  H    0.277581
    24  H    0.275605
    25  H    0.211049
    26  N    0.488051
    27  O   -0.460452
    28  O   -0.458664
 Sum of Mulliken charges =  -0.00000

 Dipole moment (field-independent basis, Debye):
    X=              1.4408    Y=              2.9757    Z=             -0.8722  Tot=              3.4193
 Quadrupole moment (field-independent basis, Debye-Ang):
   XX=           -176.6870   YY=            -99.6384   ZZ=           -100.9380
   XY=             13.9706   XZ=              4.1555   YZ=              0.6434

 Normal termination of Gaussian 16 at Thu May  6 05:00:30 2021.
