 Gaussian 16, Revision A.03,
 Gaussian 16:  EM64L-G16RevA.03 25-Dec-2016

 -------------
 #p 6-31g* mp2
 -------------

 ------------------------------------------------------
 Input file generated by CHIRIPA (05-May-2021 14:51:08)
 ------------------------------------------------------
 Symbolic Z-matrix:
 Charge =  0 Multiplicity = 1

                         Standard orientation:
 ---------------------------------------------------------------------
 Center     Atomic      Atomic             Coordinates (Angstroms)
 Number     Number       Type             X           Y           Z
 ---------------------------------------------------------------------
      1          6           0        3.785581   -0.695524    0.069576
      2          6           0        4.445142    0.500376   -0.618020
      3          6           0        5.971508    0.411114   -0.623714
      4          1           0        4.154047   -0.765747    1.102168
      5          1           0        4.097900   -1.619101   -0.437233
      6          1           0        4.130578    1.421529   -0.110928
      7          1           0        4.074918    0.567875   -1.649036
      8          1           0        6.302668   -0.491465   -1.147437
      9          1           0        6.358644    0.367040    0.399411
     10          1           0        6.422394    1.276083   -1.120091
     11          6           0        2.259819   -0.620734    0.083280
     12          6           0        1.600258   -1.816634    0.770876
     13          6           0        0.073892   -1.727372    0.776570
     14          1           0        1.947500    0.302844    0.590089
     15          1           0        1.891353   -0.550511   -0.949312
     16          1           0        1.970482   -1.884132    1.801892
     17          1           0        1.914822   -2.737787    0.263784
     18          1           0       -0.313244   -1.683298   -0.246555
     19          1           0       -0.257268   -0.824793    1.300292
     20          1           0       -0.376994   -2.592341    1.272947
     21          6           0       -3.689646    0.386358   -0.330898
     22          6           0       -3.810535   -1.133201   -0.211279
     23          6           0       -5.150316   -1.661851   -0.724415
     24          1           0       -4.509741    0.858138    0.227506
     25          1           0       -3.820548    0.675939   -1.382755
     26          1           0       -3.678067   -1.419955    0.839836
     27          1           0       -2.989947   -1.601414   -0.769874
     28          1           0       -5.287381   -1.404405   -1.779657
     29          1           0       -5.979410   -1.221915   -0.160802
     30          1           0       -5.215357   -2.750257   -0.629525
     31          6           0       -2.355754    0.929899    0.178043
     32          6           0       -2.234865    2.449459    0.058423
     33          6           0       -0.895083    2.978110    0.571559
     34          1           0       -2.224851    0.640319    1.229899
     35          1           0       -1.535659    0.458120   -0.380362
     36          1           0       -3.055453    2.917671    0.617019
     37          1           0       -2.367333    2.736212   -0.992691
     38          1           0       -0.065990    2.538172    0.007946
     39          1           0       -0.758019    2.720663    1.626801
     40          1           0       -0.830043    4.066514    0.476669
 ---------------------------------------------------------------------

 SCF Done:  E(RHF) =  -470.731364076     A.U. after   11 cycles
 E2 =    -0.1584644825D+01 EUMP2 =    -0.47231600890092D+03

 The electronic state is 1-A.
 Alpha  occ. eigenvalues --  -11.21594 -11.21538 -11.21535 -11.21517 -11.21394
 Alpha  occ. eigenvalues --  -11.21335 -11.21310 -11.21206 -11.21064 -11.21062
 Alpha  occ. eigenvalues --  -11.21019 -11.20899  -1.08433  -1.08341  -1.03501
 Alpha  occ. eigenvalues --   -1.03470  -0.96010  -0.95870  -0.87022  -0.86902
 Alpha  occ. eigenvalues --   -0.79664  -0.79522  -0.78373  -0.77966  -0.65078
 Alpha  occ. eigenvalues --   -0.64972  -0.60912  -0.60865  -0.59389  -0.59224
 Alpha  occ. eigenvalues --   -0.57796  -0.57352  -0.55284  -0.55179  -0.52757
 Alpha  occ. eigenvalues --   -0.52634  -0.52526  -0.52109  -0.49910  -0.49867
 Alpha  occ. eigenvalues --   -0.48138  -0.47778  -0.46645  -0.46572  -0.46078
 Alpha  occ. eigenvalues --   -0.45770  -0.45474  -0.45049  -0.43753  -0.43707
 Alpha virt. eigenvalues --    0.21406   0.22906   0.23615   0.24372   0.25463
 Alpha virt. eigenvalues --    0.26027   0.26245   0.27470   0.28715   0.30008
 Alpha virt. eigenvalues --    0.30269   0.31123   0.31483   0.31871   0.32328

 Mulliken charges:
               1
     1  C   -0.297940
     2  C   -0.299768
     3  C   -0.475684
     4  H    0.149782
     5  H    0.149528
     6  H    0.152194
     7  H    0.151607
     8  H    0.155127
     9  H    0.155235
    10  H    0.160245
    11  C   -0.300941
    12  C   -0.300259
    13  C   -0.478329
    14  H    0.152091
    15  H    0.148272
    16  H    0.151390
    17  H    0.151151
    18  H    0.154871
    19  H    0.162052
    20  H    0.159147
    21  C   -0.298088
    22  C   -0.301099
    23  C   -0.475687
    24  H    0.148889
    25  H    0.148661
    26  H    0.152457
    27  H    0.154143
    28  H    0.154757
    29  H    0.154949
    30  H    0.160016
    31  C   -0.301880
    32  C   -0.298831
    33  C   -0.478434
    34  H    0.149174
    35  H    0.156633
    36  H    0.151268
    37  H    0.151427
    38  H    0.157527
    39  H    0.153944
    40  H    0.160403
 Sum of Mulliken charges =  -0.00000

 Dipole moment (field-independent basis, Debye):
    X=              0.0013    Y=             -0.0061    Z=              0.0101  Tot=              0.0119
 Quadrupole moment (field-independent basis, Debye-Ang):
   XX=            -86.9333   YY=            -84.9993   ZZ=            -83.2122
   XY=             -0.5077   XZ=             -0.5783   YZ=              0.3665

 Normal termination of Gaussian 16 at Thu May  6 08:27:08 2021.
