 Gaussian 16, Revision A.03,
 Gaussian 16:  EM64L-G16RevA.03 25-Dec-2016

 -------------
 #p 6-31g* mp2
 -------------

 ------------------------------------------------------
 Input file generated by CHIRIPA (05-May-2021 14:53:11)
 ------------------------------------------------------
 Symbolic Z-matrix:
 Charge =  0 Multiplicity = 1

                         Standard orientation:
 ---------------------------------------------------------------------
 Center     Atomic      Atomic             Coordinates (Angstroms)
 Number     Number       Type             X           Y           Z
 ---------------------------------------------------------------------
      1          6           0        4.338328   -0.459815    0.218456
      2          6           0        4.095870   -1.779828   -0.514185
      3          6           0        5.150877   -2.838088   -0.190393
      4          1           0        5.334577   -0.079103   -0.045155
      5          1           0        4.351489   -0.646504    1.301216
      6          1           0        4.081792   -1.590481   -1.595187
      7          1           0        3.100005   -2.157345   -0.248948
      8          1           0        5.161312   -3.056023    0.882453
      9          1           0        6.148677   -2.485938   -0.471436
     10          1           0        4.958295   -3.773619   -0.724765
     11          6           0        3.291907    0.608115   -0.095003
     12          6           0        3.534364    1.928129    0.637638
     13          6           0        2.479358    2.986388    0.313845
     14          1           0        3.278746    0.794804   -1.177763
     15          1           0        2.295657    0.227404    0.168608
     16          1           0        4.530229    2.305645    0.372401
     17          1           0        3.548442    1.738781    1.718640
     18          1           0        1.481557    2.634238    0.594888
     19          1           0        2.468922    3.204323   -0.759000
     20          1           0        2.671939    3.921920    0.848218
     21          6           0       -4.297781   -2.171930    0.354085
     22          6           0       -2.900786   -2.217145    0.300432
     23          6           0       -2.160711   -1.052069    0.078093
     24          6           0       -2.853216    0.146444   -0.087118
     25          6           0       -4.244251    0.223892   -0.038981
     26          6           0       -4.963881   -0.953704    0.184507
     27          1           0       -4.864749   -3.081853    0.527250
     28          1           0       -2.380816   -3.161827    0.431782
     29          1           0       -1.078473   -1.058483    0.031861
     30          1           0       -4.734462    1.180447   -0.173569
     31          1           0       -6.048730   -0.915593    0.225683
     32          7           0       -2.080554    1.386485   -0.323106
     33          8           0       -2.714393    2.429839   -0.465575
     34          8           0       -0.855733    1.291595   -0.361137
 ---------------------------------------------------------------------

 SCF Done:  E(RHF) =  -669.536070526     A.U. after   15 cycles
 E2 =    -0.2091265434D+01 EUMP2 =    -0.67162733596001D+03

 The electronic state is 1-A.
 Alpha  occ. eigenvalues --  -20.60956 -20.60951 -15.85989 -11.31306 -11.27871
 Alpha  occ. eigenvalues --  -11.27865 -11.27604 -11.26875 -11.26865 -11.21317
 Alpha  occ. eigenvalues --  -11.20881 -11.20850 -11.20590 -11.20496 -11.19508
 Alpha  occ. eigenvalues --   -1.60016  -1.39573  -1.19474  -1.08878  -1.07753
 Alpha  occ. eigenvalues --   -1.04870  -1.02782  -0.95722  -0.95199  -0.86272
 Alpha  occ. eigenvalues --   -0.86208  -0.82556  -0.78909  -0.77635  -0.77454
 Alpha  occ. eigenvalues --   -0.72210  -0.71330  -0.70582  -0.65131  -0.64872
 Alpha  occ. eigenvalues --   -0.64397  -0.62218  -0.60186  -0.58662  -0.56795
 Alpha  occ. eigenvalues --   -0.55374  -0.54480  -0.53201  -0.52962  -0.51921
 Alpha  occ. eigenvalues --   -0.51601  -0.49237  -0.48965  -0.48858  -0.47161
 Alpha  occ. eigenvalues --   -0.45970  -0.45081  -0.45001  -0.44810  -0.43047
 Alpha  occ. eigenvalues --   -0.37452  -0.36471
 Alpha virt. eigenvalues --    0.04905   0.11184   0.16391   0.21012   0.23260
 Alpha virt. eigenvalues --    0.25010   0.25930   0.27448   0.27726   0.28882
 Alpha virt. eigenvalues --    0.29004   0.30989   0.31965   0.32216   0.32604

 Mulliken charges:
               1
     1  C   -0.297975
     2  C   -0.297368
     3  C   -0.475150
     4  H    0.148689
     5  H    0.146948
     6  H    0.152486
     7  H    0.145502
     8  H    0.153895
     9  H    0.155812
    10  H    0.157549
    11  C   -0.297908
    12  C   -0.299687
    13  C   -0.481490
    14  H    0.150090
    15  H    0.153995
    16  H    0.146876
    17  H    0.146896
    18  H    0.179719
    19  H    0.154555
    20  H    0.152612
    21  C   -0.170539
    22  C   -0.218627
    23  C   -0.171071
    24  C    0.157718
    25  C   -0.170534
    26  C   -0.218602
    27  H    0.226066
    28  H    0.223973
    29  H    0.275861
    30  H    0.275923
    31  H    0.223872
    32  N    0.491495
    33  O   -0.458484
    34  O   -0.463097
 Sum of Mulliken charges =  -0.00000

 Dipole moment (field-independent basis, Debye):
    X=             -3.0383    Y=             -4.3006    Z=              0.7861  Tot=              5.3240
 Quadrupole moment (field-independent basis, Debye-Ang):
   XX=            -76.7358   YY=            -96.0861   ZZ=            -95.3039
   XY=             10.4633   XZ=             -2.7003   YZ=              0.0511

 Normal termination of Gaussian 16 at Thu May  6 04:04:04 2021.
