 Gaussian 16, Revision A.03,
 Gaussian 16:  EM64L-G16RevA.03 25-Dec-2016

 -------------
 #p 6-31g* mp2
 -------------

 ------------------------------------------------------
 Input file generated by CHIRIPA (05-May-2021 14:51:10)
 ------------------------------------------------------
 Symbolic Z-matrix:
 Charge =  0 Multiplicity = 1

                         Standard orientation:
 ---------------------------------------------------------------------
 Center     Atomic      Atomic             Coordinates (Angstroms)
 Number     Number       Type             X           Y           Z
 ---------------------------------------------------------------------
      1          6           0        2.420185   -1.063856    0.704985
      2          6           0        1.077937   -1.777813    0.541829
      3          6           0        0.610287   -2.458698    1.828489
      4          1           0        3.176777   -1.789595    1.033339
      5          1           0        2.335191   -0.316775    1.506260
      6          1           0        1.165043   -2.522367   -0.259837
      7          1           0        0.324496   -1.050328    0.213641
      8          1           0        0.495359   -1.724909    2.632819
      9          1           0        1.340683   -3.205312    2.156651
     10          1           0       -0.351105   -2.962898    1.689320
     11          6           0        2.900985   -0.378333   -0.572754
     12          6           0        4.243233    0.335625   -0.409598
     13          6           0        4.710884    1.016509   -1.696258
     14          1           0        2.985980   -1.125414   -1.374029
     15          1           0        2.144393    0.347407   -0.901107
     16          1           0        4.996675   -0.391861   -0.081410
     17          1           0        4.156127    1.080178    0.392068
     18          1           0        3.980488    1.763123   -2.024419
     19          1           0        4.825811    0.282720   -2.500588
     20          1           0        5.672276    1.520709   -1.557088
     21          6           0       -3.313328    0.512976   -0.403822
     22          6           0       -3.362940   -0.972179   -0.764151
     23          6           0       -4.674996   -1.373234   -1.439028
     24          1           0       -4.156197    0.751218    0.259321
     25          1           0       -3.454882    1.109325   -1.315812
     26          1           0       -3.219952   -1.565545    0.148037
     27          1           0       -2.519745   -1.206955   -1.426359
     28          1           0       -4.821185   -0.806609   -2.364320
     29          1           0       -5.525370   -1.167237   -0.780979
     30          1           0       -4.689032   -2.438916   -1.687994
     31          6           0       -2.007843    0.929213    0.271591
     32          6           0       -1.958230    2.414369    0.631920
     33          6           0       -0.646174    2.815422    1.306797
     34          1           0       -1.866288    0.332863    1.183580
     35          1           0       -1.164974    0.690971   -0.391552
     36          1           0       -2.801425    2.649144    1.294127
     37          1           0       -2.101219    3.007733   -0.280269
     38          1           0        0.204200    2.609425    0.648747
     39          1           0       -0.499985    2.248797    2.232089
     40          1           0       -0.632138    3.881104    1.555763
 ---------------------------------------------------------------------

 SCF Done:  E(RHF) =  -470.733121299     A.U. after   11 cycles
 E2 =    -0.1583933232D+01 EUMP2 =    -0.47231705453143D+03

 The electronic state is 1-A.
 Alpha  occ. eigenvalues --  -11.21682 -11.21635 -11.21581 -11.21472 -11.21432
 Alpha  occ. eigenvalues --  -11.21409 -11.21373 -11.21286 -11.21173 -11.21097
 Alpha  occ. eigenvalues --  -11.21064 -11.21011  -1.08510  -1.08368  -1.03592
 Alpha  occ. eigenvalues --   -1.03471  -0.96048  -0.95931  -0.87063  -0.86948
 Alpha  occ. eigenvalues --   -0.79665  -0.79544  -0.78419  -0.78094  -0.65158
 Alpha  occ. eigenvalues --   -0.64983  -0.60986  -0.60885  -0.59409  -0.59303
 Alpha  occ. eigenvalues --   -0.57675  -0.57525  -0.55335  -0.55225  -0.52738
 Alpha  occ. eigenvalues --   -0.52624  -0.52493  -0.52342  -0.50011  -0.49859
 Alpha  occ. eigenvalues --   -0.48030  -0.47845  -0.46773  -0.46654  -0.46128
 Alpha  occ. eigenvalues --   -0.45782  -0.45689  -0.45133  -0.43846  -0.43727
 Alpha virt. eigenvalues --    0.20210   0.22675   0.23772   0.24403   0.24705
 Alpha virt. eigenvalues --    0.26525   0.26784   0.28180   0.28903   0.29672
 Alpha virt. eigenvalues --    0.30213   0.31282   0.31651   0.31951   0.32206

 Mulliken charges:
               1
     1  C   -0.297858
     2  C   -0.308917
     3  C   -0.475544
     4  H    0.149161
     5  H    0.149900
     6  H    0.150593
     7  H    0.163392
     8  H    0.154209
     9  H    0.154778
    10  H    0.159908
    11  C   -0.299103
    12  C   -0.299712
    13  C   -0.475624
    14  H    0.149453
    15  H    0.148688
    16  H    0.152095
    17  H    0.152287
    18  H    0.154780
    19  H    0.155089
    20  H    0.160304
    21  C   -0.297745
    22  C   -0.300934
    23  C   -0.475717
    24  H    0.149861
    25  H    0.149570
    26  H    0.152346
    27  H    0.153018
    28  H    0.155267
    29  H    0.155250
    30  H    0.160475
    31  C   -0.304338
    32  C   -0.298969
    33  C   -0.476805
    34  H    0.151872
    35  H    0.153302
    36  H    0.152406
    37  H    0.152126
    38  H    0.154996
    39  H    0.155141
    40  H    0.160999
 Sum of Mulliken charges =  -0.00000

 Dipole moment (field-independent basis, Debye):
    X=             -0.0586    Y=              0.0301    Z=             -0.0051  Tot=              0.0660
 Quadrupole moment (field-independent basis, Debye-Ang):
   XX=            -85.3679   YY=            -84.5511   ZZ=            -84.8649
   XY=             -0.9815   XZ=             -0.5491   YZ=              0.3456

 Normal termination of Gaussian 16 at Wed May  5 15:10:26 2021.
