 Gaussian 16, Revision A.03,
 Gaussian 16:  EM64L-G16RevA.03 25-Dec-2016

 -------------
 #p 6-31g* mp2
 -------------

 ------------------------------------------------------
 Input file generated by CHIRIPA (05-May-2021 14:57:26)
 ------------------------------------------------------
 Symbolic Z-matrix:
 Charge =  0 Multiplicity = 1

                         Standard orientation:
 ---------------------------------------------------------------------
 Center     Atomic      Atomic             Coordinates (Angstroms)
 Number     Number       Type             X           Y           Z
 ---------------------------------------------------------------------
      1          6           0        2.666380    2.483932   -0.409554
      2          6           0        1.911093    1.388843    0.022699
      3          6           0        2.521094    0.152168    0.253092
      4          6           0        3.894635    0.045614    0.040206
      5          6           0        4.674246    1.118124   -0.390165
      6          6           0        4.043119    2.345322   -0.614246
      7          1           0        2.184312    3.440930   -0.586077
      8          1           0        0.841728    1.493572    0.182493
      9          1           0        1.960288   -0.711985    0.587988
     10          1           0        5.738428    0.982980   -0.540735
     11          1           0        4.632192    3.194066   -0.949912
     12          7           0        4.551598   -1.258582    0.280771
     13          8           0        5.763222   -1.326499    0.085857
     14          8           0        3.842462   -2.188199    0.659686
     15          6           0       -6.048568    0.831752    0.234371
     16          6           0       -5.811194   -0.069141   -0.808974
     17          6           0       -4.561606   -0.680299   -0.948837
     18          6           0       -3.567658   -0.366162   -0.023270
     19          6           0       -3.773369    0.527234    1.026881
     20          6           0       -5.030692    1.126544    1.147359
     21          1           0       -7.022282    1.301912    0.335490
     22          1           0       -6.599823   -0.299971   -1.519486
     23          1           0       -4.350672   -1.381434   -1.747169
     24          1           0       -2.967551    0.737427    1.719626
     25          1           0       -5.212191    1.825802    1.958617
     26          7           0       -2.240680   -1.006897   -0.161075
     27          8           0       -1.381621   -0.713333    0.667461
     28          8           0       -2.084782   -1.790535   -1.095014
 ---------------------------------------------------------------------

 SCF Done:  E(RHF) =  -868.339720796     A.U. after   16 cycles
 E2 =    -0.2598801193D+01 EUMP2 =    -0.87093852198891D+03

 The electronic state is 1-A.
 Alpha  occ. eigenvalues --  -20.61654 -20.61589 -20.59824 -20.59794 -15.86639
 Alpha  occ. eigenvalues --  -15.84859 -11.31816 -11.30133 -11.28382 -11.28333
 Alpha  occ. eigenvalues --  -11.28054 -11.27336 -11.27305 -11.26798 -11.26534
 Alpha  occ. eigenvalues --  -11.26524 -11.25835 -11.25599  -1.60670  -1.58890
 Alpha  occ. eigenvalues --   -1.40232  -1.38442  -1.19967  -1.18322  -1.09394
 Alpha  occ. eigenvalues --   -1.07763  -1.05340  -1.03682  -0.96261  -0.94595
 Alpha  occ. eigenvalues --   -0.86746  -0.85110  -0.83102  -0.81403  -0.78173
 Alpha  occ. eigenvalues --   -0.76440  -0.72864  -0.71973  -0.71082  -0.71068
 Alpha  occ. eigenvalues --   -0.70213  -0.69459  -0.65622  -0.65335  -0.63971
 Alpha  occ. eigenvalues --   -0.63690  -0.62689  -0.60993  -0.55839  -0.54277
 Alpha  occ. eigenvalues --   -0.53680  -0.53426  -0.52070  -0.51762  -0.49634
 Alpha  occ. eigenvalues --   -0.49588  -0.47848  -0.47824  -0.45666  -0.43866
 Alpha  occ. eigenvalues --   -0.37932  -0.36936  -0.36370  -0.35289
 Alpha virt. eigenvalues --    0.04317   0.06052   0.10720   0.12340   0.15825
 Alpha virt. eigenvalues --    0.17534   0.20847   0.22467   0.26770   0.27477
 Alpha virt. eigenvalues --    0.28571   0.29304   0.30511   0.31648   0.32437

 Mulliken charges:
               1
     1  C   -0.171861
     2  C   -0.222732
     3  C   -0.172548
     4  C    0.157478
     5  C   -0.172307
     6  C   -0.219441
     7  H    0.219881
     8  H    0.229739
     9  H    0.291550
    10  H    0.272172
    11  H    0.218715
    12  N    0.487771
    13  O   -0.465281
    14  O   -0.457250
    15  C   -0.170081
    16  C   -0.218465
    17  C   -0.170281
    18  C    0.157712
    19  C   -0.172028
    20  C   -0.218442
    21  H    0.227693
    22  H    0.225763
    23  H    0.277542
    24  H    0.273569
    25  H    0.224789
    26  N    0.489727
    27  O   -0.470998
    28  O   -0.452386
 Sum of Mulliken charges =  -0.00000

 Dipole moment (field-independent basis, Debye):
    X=             -7.5571    Y=              6.6281    Z=             -0.3803  Tot=             10.0591
 Quadrupole moment (field-independent basis, Debye-Ang):
   XX=            -86.0661   YY=           -105.5187   ZZ=           -102.3553
   XY=             13.8301   XZ=             -4.5086   YZ=              1.8559

 Normal termination of Gaussian 16 at Thu May  6 05:11:25 2021.
