 Gaussian 16, Revision A.03,
 Gaussian 16:  EM64L-G16RevA.03 25-Dec-2016

 -------------
 #p 6-31g* mp2
 -------------

 ------------------------------------------------------
 Input file generated by CHIRIPA (05-May-2021 14:55:19)
 ------------------------------------------------------
 Symbolic Z-matrix:
 Charge =  0 Multiplicity = 1

                         Standard orientation:
 ---------------------------------------------------------------------
 Center     Atomic      Atomic             Coordinates (Angstroms)
 Number     Number       Type             X           Y           Z
 ---------------------------------------------------------------------
      1          6           0        0.560309    0.065469    2.260271
      2          6           0        0.416655   -1.096304    1.494655
      3          6           0        1.300119   -1.369381    0.446099
      4          6           0        2.320461   -0.454817    0.189654
      5          6           0        2.489671    0.711335    0.934468
      6          6           0        1.594535    0.963996    1.978231
      7          1           0       -0.130520    0.269673    3.072953
      8          1           0       -0.385606   -1.795900    1.711419
      9          1           0        1.211922   -2.261155   -0.162488
     10          1           0        3.299231    1.389880    0.694453
     11          1           0        1.708511    1.867044    2.571155
     12          7           0        3.261923   -0.733105   -0.917869
     13          8           0        4.152549    0.088539   -1.123592
     14          8           0        3.091387   -1.767602   -1.559250
     15          6           0       -3.200706   -0.050326   -0.741076
     16          6           0       -4.193440   -0.590213    0.288966
     17          6           0       -5.044721   -1.737722   -0.255402
     18          1           0       -3.751541    0.289061   -1.628962
     19          1           0       -2.546233   -0.868191   -1.072975
     20          1           0       -4.844946    0.228732    0.619849
     21          1           0       -3.640193   -0.928179    1.174581
     22          1           0       -4.410261   -2.573333   -0.568156
     23          1           0       -5.621861   -1.409849   -1.126040
     24          1           0       -5.747379   -2.108489    0.497369
     25          6           0       -2.342453    1.097242   -0.211722
     26          6           0       -1.349720    1.637130   -1.241764
     27          6           0       -0.498438    2.784638   -0.697396
     28          1           0       -2.996927    1.915106    0.120178
     29          1           0       -1.791618    0.757854    0.676165
     30          1           0       -1.902967    1.975095   -2.127379
     31          1           0       -0.698213    0.818186   -1.572647
     32          1           0        0.078701    2.456767    0.173243
     33          1           0       -1.132898    3.620250   -0.384641
     34          1           0        0.204220    3.155406   -1.450167
 ---------------------------------------------------------------------

 SCF Done:  E(RHF) =  -669.533943421     A.U. after   15 cycles
 E2 =    -0.2095853009D+01 EUMP2 =    -0.67162979643011D+03

 The electronic state is 1-A.
 Alpha  occ. eigenvalues --  -20.60889 -20.60884 -15.85946 -11.31378 -11.27954
 Alpha  occ. eigenvalues --  -11.27931 -11.27676 -11.26970 -11.26928 -11.22143
 Alpha  occ. eigenvalues --  -11.21749 -11.21693 -11.21573 -11.21523 -11.21050
 Alpha  occ. eigenvalues --   -1.59964  -1.39515  -1.19567  -1.08967  -1.08722
 Alpha  occ. eigenvalues --   -1.04975  -1.03813  -0.96261  -0.95762  -0.87285
 Alpha  occ. eigenvalues --   -0.86358  -0.82589  -0.79903  -0.78561  -0.77624
 Alpha  occ. eigenvalues --   -0.72162  -0.71289  -0.70651  -0.65455  -0.65201
 Alpha  occ. eigenvalues --   -0.64930  -0.62302  -0.61274  -0.59637  -0.57876
 Alpha  occ. eigenvalues --   -0.55616  -0.55449  -0.53287  -0.53046  -0.52948
 Alpha  occ. eigenvalues --   -0.52671  -0.50244  -0.48927  -0.48913  -0.48191
 Alpha  occ. eigenvalues --   -0.46962  -0.46074  -0.46037  -0.44906  -0.44066
 Alpha  occ. eigenvalues --   -0.37416  -0.36469
 Alpha virt. eigenvalues --    0.04870   0.10946   0.16266   0.20176   0.22924
 Alpha virt. eigenvalues --    0.23835   0.25850   0.26694   0.27279   0.28124
 Alpha virt. eigenvalues --    0.29039   0.30313   0.31387   0.31593   0.31643

 Mulliken charges:
               1
     1  C   -0.169997
     2  C   -0.216680
     3  C   -0.171785
     4  C    0.160040
     5  C   -0.167540
     6  C   -0.222835
     7  H    0.227783
     8  H    0.225572
     9  H    0.276510
    10  H    0.277054
    11  H    0.225745
    12  N    0.487913
    13  O   -0.459601
    14  O   -0.459957
    15  C   -0.298394
    16  C   -0.298249
    17  C   -0.475580
    18  H    0.152483
    19  H    0.147745
    20  H    0.153419
    21  H    0.142162
    22  H    0.154410
    23  H    0.158084
    24  H    0.160330
    25  C   -0.302128
    26  C   -0.298193
    27  C   -0.483874
    28  H    0.147378
    29  H    0.149088
    30  H    0.152608
    31  H    0.153645
    32  H    0.159439
    33  H    0.151439
    34  H    0.161966
 Sum of Mulliken charges =  -0.00000

 Dipole moment (field-independent basis, Debye):
    X=             -3.1673    Y=              0.9267    Z=              3.9197  Tot=              5.1239
 Quadrupole moment (field-independent basis, Debye-Ang):
   XX=           -109.4410   YY=            -92.7806   ZZ=            -93.5428
   XY=              5.2781   XZ=              9.3402   YZ=             -0.9326

 Normal termination of Gaussian 16 at Thu May  6 02:53:01 2021.
