 Gaussian 16, Revision A.03,
 Gaussian 16:  EM64L-G16RevA.03 25-Dec-2016

 -------------
 #p 6-31g* mp2
 -------------

 ------------------------------------------------------
 Input file generated by CHIRIPA (05-May-2021 14:55:24)
 ------------------------------------------------------
 Symbolic Z-matrix:
 Charge =  0 Multiplicity = 1

                         Standard orientation:
 ---------------------------------------------------------------------
 Center     Atomic      Atomic             Coordinates (Angstroms)
 Number     Number       Type             X           Y           Z
 ---------------------------------------------------------------------
      1          6           0        4.052173   -1.878219    0.376616
      2          6           0        4.591752   -0.721074    0.947921
      3          6           0        4.002161    0.525571    0.718119
      4          6           0        2.868769    0.578705   -0.091750
      5          6           0        2.307618   -0.556222   -0.675138
      6          6           0        2.913835   -1.792252   -0.431665
      7          1           0        4.516639   -2.842520    0.560441
      8          1           0        5.475729   -0.784829    1.576064
      9          1           0        4.399101    1.437247    1.147890
     10          1           0        1.425684   -0.460977   -1.296859
     11          1           0        2.492613   -2.689245   -0.876660
     12          7           0        2.235795    1.892853   -0.342267
     13          8           0        1.237900    1.912909   -1.059513
     14          8           0        2.749549    2.877943    0.183367
     15          6           0       -4.285312   -0.026508    0.467450
     16          6           0       -5.637706    0.178587   -0.215887
     17          6           0       -6.586573    1.054969    0.602281
     18          1           0       -4.445748   -0.480081    1.455112
     19          1           0       -3.819861    0.952867    0.645145
     20          1           0       -6.099845   -0.800954   -0.393490
     21          1           0       -5.474019    0.631549   -1.202118
     22          1           0       -6.149849    2.045109    0.768105
     23          1           0       -6.779232    0.604467    1.581327
     24          1           0       -7.547301    1.188505    0.095298
     25          6           0       -3.325800   -0.900512   -0.338268
     26          6           0       -1.973404   -1.105608    0.345070
     27          6           0       -1.024538   -1.981990   -0.473099
     28          1           0       -3.791250   -1.879887   -0.515963
     29          1           0       -3.165364   -0.446939   -1.325930
     30          1           0       -2.137093   -1.558569    1.331300
     31          1           0       -1.511266   -0.126067    0.522672
     32          1           0       -0.831879   -1.531487   -1.452145
     33          1           0       -1.461262   -2.972129   -0.638923
     34          1           0       -0.063810   -2.115526    0.033884
 ---------------------------------------------------------------------

 SCF Done:  E(RHF) =  -669.534887506     A.U. after   15 cycles
 E2 =    -0.2092459900D+01 EUMP2 =    -0.67162734740584D+03

 The electronic state is 1-A.
 Alpha  occ. eigenvalues --  -20.60799 -20.60791 -15.85845 -11.31160 -11.27758
 Alpha  occ. eigenvalues --  -11.27684 -11.27497 -11.26756 -11.26723 -11.21620
 Alpha  occ. eigenvalues --  -11.21455 -11.21394 -11.21279 -11.21160 -11.20850
 Alpha  occ. eigenvalues --   -1.59869  -1.39424  -1.19353  -1.08754  -1.08322
 Alpha  occ. eigenvalues --   -1.04760  -1.03498  -0.96003  -0.95582  -0.87030
 Alpha  occ. eigenvalues --   -0.86143  -0.82428  -0.79574  -0.78108  -0.77471
 Alpha  occ. eigenvalues --   -0.72067  -0.71191  -0.70470  -0.65012  -0.64973
 Alpha  occ. eigenvalues --   -0.64723  -0.62183  -0.60850  -0.59356  -0.57582
 Alpha  occ. eigenvalues --   -0.55402  -0.55136  -0.53229  -0.52834  -0.52582
 Alpha  occ. eigenvalues --   -0.52363  -0.49901  -0.48821  -0.48820  -0.47882
 Alpha  occ. eigenvalues --   -0.46560  -0.45667  -0.45550  -0.44833  -0.43748
 Alpha  occ. eigenvalues --   -0.37342  -0.36292
 Alpha virt. eigenvalues --    0.05025   0.11257   0.16414   0.20894   0.23036
 Alpha virt. eigenvalues --    0.24233   0.26262   0.26951   0.27561   0.27944
 Alpha virt. eigenvalues --    0.29430   0.29584   0.31439   0.31787   0.32304

 Mulliken charges:
               1
     1  C   -0.170982
     2  C   -0.219100
     3  C   -0.170572
     4  C    0.156647
     5  C   -0.170720
     6  C   -0.222805
     7  H    0.225678
     8  H    0.223346
     9  H    0.275486
    10  H    0.283260
    11  H    0.225470
    12  N    0.487908
    13  O   -0.461490
    14  O   -0.460162
    15  C   -0.299414
    16  C   -0.299831
    17  C   -0.475927
    18  H    0.148208
    19  H    0.154657
    20  H    0.150304
    21  H    0.153498
    22  H    0.157147
    23  H    0.154239
    24  H    0.159788
    25  C   -0.298836
    26  C   -0.300417
    27  C   -0.487126
    28  H    0.147257
    29  H    0.153229
    30  H    0.151352
    31  H    0.161941
    32  H    0.153047
    33  H    0.155466
    34  H    0.159451
 Sum of Mulliken charges =  -0.00000

 Dipole moment (field-independent basis, Debye):
    X=              2.1977    Y=             -4.5363    Z=              0.8995  Tot=              5.1202
 Quadrupole moment (field-independent basis, Debye-Ang):
   XX=            -80.3570   YY=            -99.5751   ZZ=            -93.9449
   XY=             -9.8992   XZ=              4.8929   YZ=              1.6818

 Normal termination of Gaussian 16 at Thu May  6 19:19:23 2021.
