 Gaussian 16, Revision A.03,
 Gaussian 16:  EM64L-G16RevA.03 25-Dec-2016

 -------------
 #p 6-31g* mp2
 -------------

 ------------------------------------------------------
 Input file generated by CHIRIPA (05-May-2021 14:55:25)
 ------------------------------------------------------
 Symbolic Z-matrix:
 Charge =  0 Multiplicity = 1

                         Standard orientation:
 ---------------------------------------------------------------------
 Center     Atomic      Atomic             Coordinates (Angstroms)
 Number     Number       Type             X           Y           Z
 ---------------------------------------------------------------------
      1          6           0       -4.539326   -2.089438   -0.144413
      2          6           0       -5.228952   -0.878290   -0.262983
      3          6           0       -4.532427    0.332395   -0.323336
      4          6           0       -3.140257    0.294894   -0.262127
      5          6           0       -2.424616   -0.895565   -0.143997
      6          6           0       -3.141823   -2.094201   -0.085403
      7          1           0       -5.088437   -3.025247   -0.098213
      8          1           0       -6.314254   -0.871561   -0.309034
      9          1           0       -5.041121    1.284352   -0.415131
     10          1           0       -1.342541   -0.870350   -0.100444
     11          1           0       -2.603609   -3.033292    0.006679
     12          7           0       -2.391930    1.570215   -0.325089
     13          8           0       -1.165589    1.510226   -0.269176
     14          8           0       -3.045901    2.605651   -0.429159
     15          6           0        4.695905   -0.544644   -0.030311
     16          6           0        5.706792    0.257798   -0.850177
     17          6           0        6.737606   -0.628858   -1.549503
     18          1           0        5.233135   -1.144348    0.717141
     19          1           0        4.181101   -1.256223   -0.690634
     20          1           0        6.218556    0.968612   -0.188771
     21          1           0        5.167080    0.855808   -1.595638
     22          1           0        6.244238   -1.328616   -2.231798
     23          1           0        7.301688   -1.215171   -0.816938
     24          1           0        7.450392   -0.034741   -2.129867
     25          6           0        3.658886    0.327796    0.674791
     26          6           0        2.648000   -0.474646    1.494658
     27          6           0        1.617186    0.412011    2.193982
     28          1           0        4.173691    1.039375    1.335115
     29          1           0        3.121657    0.927499   -0.072661
     30          1           0        3.187712   -1.072655    2.240118
     31          1           0        2.136236   -1.185459    0.833252
     32          1           0        1.053104    0.998323    1.461418
     33          1           0        2.110554    1.111769    2.876278
     34          1           0        0.904401   -0.182107    2.774346
 ---------------------------------------------------------------------

 SCF Done:  E(RHF) =  -669.536199206     A.U. after   15 cycles
 E2 =    -0.2090993637D+01 EUMP2 =    -0.67162719284287D+03

 The electronic state is 1-A.
 Alpha  occ. eigenvalues --  -20.60920 -20.60907 -15.85956 -11.31263 -11.27828
 Alpha  occ. eigenvalues --  -11.27822 -11.27566 -11.26835 -11.26824 -11.21251
 Alpha  occ. eigenvalues --  -11.21158 -11.21016 -11.20843 -11.20807 -11.20253
 Alpha  occ. eigenvalues --   -1.59978  -1.39535  -1.19432  -1.08839  -1.07992
 Alpha  occ. eigenvalues --   -1.04828  -1.03077  -0.95688  -0.95498  -0.86515
 Alpha  occ. eigenvalues --   -0.86229  -0.82520  -0.79150  -0.77805  -0.77569
 Alpha  occ. eigenvalues --   -0.72187  -0.71290  -0.70543  -0.65092  -0.64833
 Alpha  occ. eigenvalues --   -0.64618  -0.62177  -0.60464  -0.58900  -0.57127
 Alpha  occ. eigenvalues --   -0.55335  -0.54763  -0.53160  -0.52919  -0.52216
 Alpha  occ. eigenvalues --   -0.51916  -0.49438  -0.48933  -0.48907  -0.47457
 Alpha  occ. eigenvalues --   -0.46190  -0.45350  -0.45277  -0.44885  -0.43342
 Alpha  occ. eigenvalues --   -0.37412  -0.36429
 Alpha virt. eigenvalues --    0.04937   0.11223   0.16416   0.20860   0.23078
 Alpha virt. eigenvalues --    0.24225   0.26701   0.27431   0.27908   0.28068
 Alpha virt. eigenvalues --    0.29028   0.30776   0.31645   0.32198   0.32369

 Mulliken charges:
               1
     1  C   -0.170544
     2  C   -0.218643
     3  C   -0.170769
     4  C    0.158034
     5  C   -0.171206
     6  C   -0.218827
     7  H    0.225905
     8  H    0.223701
     9  H    0.275735
    10  H    0.277106
    11  H    0.223929
    12  N    0.492038
    13  O   -0.464573
    14  O   -0.458964
    15  C   -0.297614
    16  C   -0.299695
    17  C   -0.475404
    18  H    0.147634
    19  H    0.146939
    20  H    0.152034
    21  H    0.153797
    22  H    0.154004
    23  H    0.154080
    24  H    0.159856
    25  C   -0.299634
    26  C   -0.297111
    27  C   -0.488337
    28  H    0.149490
    29  H    0.157324
    30  H    0.148272
    31  H    0.143104
    32  H    0.183485
    33  H    0.153566
    34  H    0.151288
 Sum of Mulliken charges =  -0.00000

 Dipole moment (field-independent basis, Debye):
    X=             -2.8103    Y=             -4.3417    Z=              0.1479  Tot=              5.1740
 Quadrupole moment (field-independent basis, Debye-Ang):
   XX=            -75.1995   YY=            -96.8209   ZZ=            -95.7625
   XY=             11.9090   XZ=              1.2019   YZ=              0.9266

 Normal termination of Gaussian 16 at Thu May  6 17:44:28 2021.
