 Gaussian 16, Revision A.03,
 Gaussian 16:  EM64L-G16RevA.03 25-Dec-2016

 -------------
 #p 6-31g* mp2
 -------------

 ------------------------------------------------------
 Input file generated by CHIRIPA (05-May-2021 14:55:19)
 ------------------------------------------------------
 Symbolic Z-matrix:
 Charge =  0 Multiplicity = 1

                         Standard orientation:
 ---------------------------------------------------------------------
 Center     Atomic      Atomic             Coordinates (Angstroms)
 Number     Number       Type             X           Y           Z
 ---------------------------------------------------------------------
      1          6           0       -5.099293   -0.882353   -1.158797
      2          6           0       -4.171614   -0.018003   -1.749417
      3          6           0       -3.050691    0.415850   -1.035379
      4          6           0       -2.887921   -0.036402    0.273157
      5          6           0       -3.794474   -0.897719    0.889261
      6          6           0       -4.908100   -1.318683    0.156338
      7          1           0       -5.967218   -1.214374   -1.720815
      8          1           0       -4.317534    0.322478   -2.770605
      9          1           0       -2.316880    1.084874   -1.468214
     10          1           0       -3.621998   -1.220047    1.908955
     11          1           0       -5.626909   -1.989962    0.617579
     12          7           0       -1.705113    0.416076    1.039073
     13          8           0       -1.584522    0.003221    2.190440
     14          8           0       -0.921016    1.175015    0.473529
     15          6           0        3.873824    0.896756   -0.280964
     16          6           0        2.453833    1.405399   -0.030173
     17          6           0        2.325258    2.917103   -0.219942
     18          1           0        4.566624    1.413148    0.397499
     19          1           0        4.177336    1.166179   -1.302084
     20          1           0        2.152573    1.133886    0.989699
     21          1           0        1.764306    0.887597   -0.709179
     22          1           0        2.599710    3.201933   -1.240799
     23          1           0        2.990184    3.449622    0.467733
     24          1           0        1.302104    3.259262   -0.035710
     25          6           0        4.018305   -0.612658   -0.095162
     26          6           0        5.438295   -1.121299   -0.345953
     27          6           0        5.566870   -2.633004   -0.156184
     28          1           0        3.714792   -0.882080    0.925958
     29          1           0        3.325504   -1.129049   -0.773624
     30          1           0        6.127822   -0.603498    0.333053
     31          1           0        5.739555   -0.849788   -1.365825
     32          1           0        4.901944   -3.165524   -0.843859
     33          1           0        5.292418   -2.917835    0.864673
     34          1           0        6.590024   -2.975163   -0.340416
 ---------------------------------------------------------------------

 SCF Done:  E(RHF) =  -669.535877389     A.U. after   15 cycles
 E2 =    -0.2091535420D+01 EUMP2 =    -0.67162741280942D+03

 The electronic state is 1-A.
 Alpha  occ. eigenvalues --  -20.60963 -20.60945 -15.85983 -11.31306 -11.27869
 Alpha  occ. eigenvalues --  -11.27865 -11.27605 -11.26876 -11.26866 -11.20892
 Alpha  occ. eigenvalues --  -11.20500 -11.20460 -11.20216 -11.19927 -11.19598
 Alpha  occ. eigenvalues --   -1.60014  -1.39571  -1.19474  -1.08879  -1.07370
 Alpha  occ. eigenvalues --   -1.04870  -1.02412  -0.95724  -0.94916  -0.86271
 Alpha  occ. eigenvalues --   -0.85955  -0.82558  -0.78525  -0.77616  -0.77086
 Alpha  occ. eigenvalues --   -0.72205  -0.71324  -0.70583  -0.65131  -0.64873
 Alpha  occ. eigenvalues --   -0.64020  -0.62218  -0.59829  -0.58311  -0.56450
 Alpha  occ. eigenvalues --   -0.55372  -0.54252  -0.53202  -0.52962  -0.51609
 Alpha  occ. eigenvalues --   -0.51339  -0.48984  -0.48952  -0.48909  -0.46835
 Alpha  occ. eigenvalues --   -0.45591  -0.45099  -0.44538  -0.44478  -0.42674
 Alpha  occ. eigenvalues --   -0.37451  -0.36472
 Alpha virt. eigenvalues --    0.04907   0.11183   0.16393   0.21285   0.23806
 Alpha virt. eigenvalues --    0.25332   0.27212   0.27637   0.28030   0.28664
 Alpha virt. eigenvalues --    0.29048   0.30861   0.32158   0.32475   0.32808

 Mulliken charges:
               1
     1  C   -0.170606
     2  C   -0.218518
     3  C   -0.170888
     4  C    0.157648
     5  C   -0.170537
     6  C   -0.218567
     7  H    0.226036
     8  H    0.223871
     9  H    0.275599
    10  H    0.275893
    11  H    0.223861
    12  N    0.492448
    13  O   -0.459326
    14  O   -0.462182
    15  C   -0.299260
    16  C   -0.291558
    17  C   -0.479260
    18  H    0.146164
    19  H    0.143464
    20  H    0.163444
    21  H    0.151693
    22  H    0.144934
    23  H    0.149085
    24  H    0.172251
    25  C   -0.296943
    26  C   -0.298575
    27  C   -0.474998
    28  H    0.151578
    29  H    0.146553
    30  H    0.151043
    31  H    0.149535
    32  H    0.153223
    33  H    0.155245
    34  H    0.157649
 Sum of Mulliken charges =  -0.00000

 Dipole moment (field-independent basis, Debye):
    X=             -4.5496    Y=             -1.5952    Z=             -2.5677  Tot=              5.4623
 Quadrupole moment (field-independent basis, Debye-Ang):
   XX=            -72.2466   YY=            -95.4115   ZZ=            -92.4695
   XY=              6.0974   XZ=              6.0938   YZ=             -2.4051

 Normal termination of Gaussian 16 at Thu May  6 07:41:01 2021.
