 Gaussian 16, Revision A.03,
 Gaussian 16:  EM64L-G16RevA.03 25-Dec-2016

 -------------
 #p 6-31g* mp2
 -------------

 ------------------------------------------------------
 Input file generated by CHIRIPA (05-May-2021 14:53:14)
 ------------------------------------------------------
 Symbolic Z-matrix:
 Charge =  0 Multiplicity = 1

                         Standard orientation:
 ---------------------------------------------------------------------
 Center     Atomic      Atomic             Coordinates (Angstroms)
 Number     Number       Type             X           Y           Z
 ---------------------------------------------------------------------
      1          6           0       -3.707634   -0.285101    0.213198
      2          6           0       -4.810937    0.155223   -0.749518
      3          6           0       -5.873366    1.022831   -0.074021
      4          1           0       -4.158048   -0.838406    1.048617
      5          1           0       -3.232987    0.605481    0.647903
      6          1           0       -5.282439   -0.735907   -1.183327
      7          1           0       -4.357824    0.707379   -1.582841
      8          1           0       -5.422370    1.928749    0.343729
      9          1           0       -6.352238    0.477263    0.745513
     10          1           0       -6.652354    1.326357   -0.780356
     11          6           0       -2.638092   -1.153130   -0.447358
     12          6           0       -1.534789   -1.593454    0.515358
     13          6           0       -0.472360   -2.461062   -0.160138
     14          1           0       -3.112739   -2.043712   -0.882063
     15          1           0       -2.187678   -0.599825   -1.282776
     16          1           0       -1.987903   -2.145610    1.348681
     17          1           0       -1.063287   -0.702324    0.949167
     18          1           0        0.006512   -1.915494   -0.979673
     19          1           0       -0.923356   -3.366981   -0.577889
     20          1           0        0.306628   -2.764588    0.546197
     21          6           0        4.219849   -1.203262   -0.376713
     22          6           0        3.369412   -1.334027    0.726093
     23          6           0        2.401082   -0.362176    0.995146
     24          6           0        2.310481    0.732449    0.136731
     25          6           0        3.143167    0.891050   -0.969963
     26          6           0        4.104216   -0.093099   -1.219734
     27          1           0        4.969242   -1.962996   -0.578230
     28          1           0        3.456938   -2.195136    1.382505
     29          1           0        1.729797   -0.438425    1.841892
     30          1           0        3.031935    1.760612   -1.606285
     31          1           0        4.763323    0.011074   -2.076922
     32          7           0        1.289207    1.767814    0.411359
     33          8           0        1.229635    2.722753   -0.360121
     34          8           0        0.567644    1.604789    1.392891
 ---------------------------------------------------------------------

 SCF Done:  E(RHF) =  -669.535995386     A.U. after   15 cycles
 E2 =    -0.2093174485D+01 EUMP2 =    -0.67162916987014D+03

 The electronic state is 1-A.
 Alpha  occ. eigenvalues --  -20.60999 -20.60991 -15.86010 -11.31273 -11.27847
 Alpha  occ. eigenvalues --  -11.27834 -11.27569 -11.26832 -11.26818 -11.21098
 Alpha  occ. eigenvalues --  -11.21022 -11.20949 -11.20886 -11.20697 -11.20503
 Alpha  occ. eigenvalues --   -1.60049  -1.39608  -1.19447  -1.08859  -1.07893
 Alpha  occ. eigenvalues --   -1.04839  -1.03075  -0.95720  -0.95538  -0.86564
 Alpha  occ. eigenvalues --   -0.86239  -0.82549  -0.79128  -0.77718  -0.77575
 Alpha  occ. eigenvalues --   -0.72238  -0.71363  -0.70559  -0.65108  -0.64848
 Alpha  occ. eigenvalues --   -0.64501  -0.62203  -0.60465  -0.58943  -0.57159
 Alpha  occ. eigenvalues --   -0.55343  -0.54867  -0.53164  -0.52927  -0.52235
 Alpha  occ. eigenvalues --   -0.51973  -0.49475  -0.49007  -0.48989  -0.47457
 Alpha  occ. eigenvalues --   -0.46188  -0.45338  -0.45222  -0.44704  -0.43315
 Alpha  occ. eigenvalues --   -0.37417  -0.36384
 Alpha virt. eigenvalues --    0.04871   0.11172   0.16301   0.20959   0.23366
 Alpha virt. eigenvalues --    0.24465   0.26648   0.27160   0.27776   0.28358
 Alpha virt. eigenvalues --    0.28944   0.30396   0.31715   0.31868   0.32639

 Mulliken charges:
               1
     1  C   -0.301158
     2  C   -0.299417
     3  C   -0.475953
     4  H    0.146928
     5  H    0.161635
     6  H    0.148691
     7  H    0.152958
     8  H    0.158762
     9  H    0.153467
    10  H    0.158257
    11  C   -0.296518
    12  C   -0.314079
    13  C   -0.473708
    14  H    0.145933
    15  H    0.149664
    16  H    0.148964
    17  H    0.170037
    18  H    0.154973
    19  H    0.153397
    20  H    0.149169
    21  C   -0.170253
    22  C   -0.218061
    23  C   -0.166286
    24  C    0.157209
    25  C   -0.171265
    26  C   -0.218754
    27  H    0.226137
    28  H    0.223795
    29  H    0.276587
    30  H    0.275588
    31  H    0.223737
    32  N    0.488121
    33  O   -0.458558
    34  O   -0.460000
 Sum of Mulliken charges =  -0.00000

 Dipole moment (field-independent basis, Debye):
    X=              3.7288    Y=             -3.4445    Z=             -0.9313  Tot=              5.1610
 Quadrupole moment (field-independent basis, Debye-Ang):
   XX=            -78.8848   YY=            -99.4227   ZZ=            -92.1913
   XY=             -4.4491   XZ=             -3.2330   YZ=             -4.0023

 Normal termination of Gaussian 16 at Thu May  6 05:49:03 2021.
