 Gaussian 16, Revision A.03,
 Gaussian 16:  EM64L-G16RevA.03 25-Dec-2016

 -------------
 #p 6-31g* mp2
 -------------

 ------------------------------------------------------
 Input file generated by CHIRIPA (05-May-2021 14:53:16)
 ------------------------------------------------------
 Symbolic Z-matrix:
 Charge =  0 Multiplicity = 1

                         Standard orientation:
 ---------------------------------------------------------------------
 Center     Atomic      Atomic             Coordinates (Angstroms)
 Number     Number       Type             X           Y           Z
 ---------------------------------------------------------------------
      1          6           0        4.034360    0.640006   -0.423272
      2          6           0        3.880716    1.865357    0.478334
      3          6           0        4.512781    3.122480   -0.119938
      4          1           0        5.102182    0.461832   -0.610239
      5          1           0        3.577231    0.852248   -1.399684
      6          1           0        4.336778    1.650370    1.453221
      7          1           0        2.813145    2.040520    0.663332
      8          1           0        4.051730    3.364519   -1.082981
      9          1           0        5.584020    2.972152   -0.288604
     10          1           0        4.391349    3.986359    0.540991
     11          6           0        3.407538   -0.624597    0.161195
     12          6           0        3.561182   -1.849948   -0.740410
     13          6           0        2.929117   -3.107071   -0.142138
     14          1           0        3.864666   -0.836839    1.137608
     15          1           0        2.339716   -0.446423    0.348162
     16          1           0        4.628753   -2.025111   -0.925409
     17          1           0        3.105120   -1.634962   -1.715297
     18          1           0        1.857877   -2.956744    0.026528
     19          1           0        3.390168   -3.349110    0.820904
     20          1           0        3.050549   -3.970951   -0.803067
     21          6           0       -0.676656   -0.734553    1.030147
     22          6           0       -0.865932   -0.651476   -0.353252
     23          6           0       -2.097471   -0.248986   -0.878476
     24          6           0       -3.122612    0.064413    0.012679
     25          6           0       -2.964996   -0.008534    1.395838
     26          6           0       -1.724943   -0.413383    1.898746
     27          1           0        0.283340   -1.048133    1.429486
     28          1           0       -0.053601   -0.900291   -1.030198
     29          1           0       -2.271324   -0.176000   -1.945184
     30          1           0       -3.793570    0.245921    2.045557
     31          1           0       -1.580814   -0.476994    2.973560
     32          7           0       -4.430893    0.491761   -0.531538
     33          8           0       -5.318168    0.762442    0.274756
     34          8           0       -4.544277    0.547942   -1.754087
 ---------------------------------------------------------------------

 SCF Done:  E(RHF) =  -669.535281274     A.U. after   15 cycles
 E2 =    -0.2092398080D+01 EUMP2 =    -0.67162767935365D+03

 The electronic state is 1-A.
 Alpha  occ. eigenvalues --  -20.60767 -20.60762 -15.85821 -11.31195 -11.27766
 Alpha  occ. eigenvalues --  -11.27758 -11.27462 -11.26776 -11.26759 -11.22697
 Alpha  occ. eigenvalues --  -11.22550 -11.22323 -11.22237 -11.22210 -11.21622
 Alpha  occ. eigenvalues --   -1.59842  -1.39396  -1.19365  -1.09416  -1.08754
 Alpha  occ. eigenvalues --   -1.04770  -1.04434  -0.96888  -0.95593  -0.87899
 Alpha  occ. eigenvalues --   -0.86168  -0.82427  -0.80512  -0.79225  -0.77471
 Alpha  occ. eigenvalues --   -0.72039  -0.71165  -0.70493  -0.66105  -0.65009
 Alpha  occ. eigenvalues --   -0.64738  -0.62156  -0.61772  -0.60263  -0.58494
 Alpha  occ. eigenvalues --   -0.56208  -0.55278  -0.53540  -0.53327  -0.53073
 Alpha  occ. eigenvalues --   -0.52856  -0.50839  -0.48815  -0.48798  -0.48786
 Alpha  occ. eigenvalues --   -0.47553  -0.46732  -0.46651  -0.44799  -0.44698
 Alpha  occ. eigenvalues --   -0.37330  -0.36372
 Alpha virt. eigenvalues --    0.05042   0.11191   0.16499   0.18484   0.22546
 Alpha virt. eigenvalues --    0.23767   0.25220   0.25570   0.27127   0.27751
 Alpha virt. eigenvalues --    0.29478   0.29704   0.30972   0.31245   0.31739

 Mulliken charges:
               1
     1  C   -0.297776
     2  C   -0.301009
     3  C   -0.476251
     4  H    0.153204
     5  H    0.150264
     6  H    0.152271
     7  H    0.152368
     8  H    0.156794
     9  H    0.156387
    10  H    0.162629
    11  C   -0.305506
    12  C   -0.301248
    13  C   -0.479017
    14  H    0.151980
    15  H    0.143220
    16  H    0.157929
    17  H    0.150719
    18  H    0.148275
    19  H    0.158123
    20  H    0.166438
    21  C   -0.175154
    22  C   -0.221712
    23  C   -0.171028
    24  C    0.158390
    25  C   -0.170779
    26  C   -0.218827
    27  H    0.231458
    28  H    0.225368
    29  H    0.275655
    30  H    0.275651
    31  H    0.223856
    32  N    0.488080
    33  O   -0.460322
    34  O   -0.460430
 Sum of Mulliken charges =  -0.00000

 Dipole moment (field-independent basis, Debye):
    X=              4.8184    Y=             -1.4748    Z=              1.9022  Tot=              5.3861
 Quadrupole moment (field-independent basis, Debye-Ang):
   XX=           -121.9252   YY=            -96.2747   ZZ=            -90.2696
   XY=              4.1671   XZ=             -7.4752   YZ=              0.8575

 Normal termination of Gaussian 16 at Wed May  5 23:33:49 2021.
