 Gaussian 16, Revision A.03,
 Gaussian 16:  EM64L-G16RevA.03 25-Dec-2016

 -------------
 #p 6-31g* mp2
 -------------

 ------------------------------------------------------
 Input file generated by CHIRIPA (05-May-2021 14:53:14)
 ------------------------------------------------------
 Symbolic Z-matrix:
 Charge =  0 Multiplicity = 1

                         Standard orientation:
 ---------------------------------------------------------------------
 Center     Atomic      Atomic             Coordinates (Angstroms)
 Number     Number       Type             X           Y           Z
 ---------------------------------------------------------------------
      1          6           0        3.175607    1.027603    0.255441
      2          6           0        2.609447    1.794812   -0.939900
      3          6           0        1.819170    3.036227   -0.524998
      4          1           0        2.350503    0.734020    0.918734
      5          1           0        3.822589    1.697200    0.838922
      6          1           0        1.964824    1.123575   -1.521723
      7          1           0        3.435976    2.086437   -1.600521
      8          1           0        2.455298    3.727935    0.036681
      9          1           0        0.975787    2.759602    0.115927
     10          1           0        1.423502    3.569570   -1.394971
     11          6           0        3.968199   -0.216019   -0.143220
     12          6           0        4.534359   -0.983227    1.052121
     13          6           0        5.324636   -2.224643    0.637219
     14          1           0        3.321217   -0.885615   -0.726701
     15          1           0        4.793303    0.077565   -0.806512
     16          1           0        3.707830   -1.274853    1.712742
     17          1           0        5.178982   -0.311991    1.633944
     18          1           0        6.168019   -1.948017   -0.003706
     19          1           0        4.688508   -2.916350    0.075540
     20          1           0        5.720304   -2.757985    1.507192
     21          6           0       -5.091989    0.181585    0.862079
     22          6           0       -3.976717    0.849778    1.378032
     23          6           0       -2.696800    0.581499    0.883679
     24          6           0       -2.568055   -0.365229   -0.131417
     25          6           0       -3.659773   -1.047542   -0.666102
     26          6           0       -4.930244   -0.763277   -0.156544
     27          1           0       -6.082591    0.396200    1.252010
     28          1           0       -4.099334    1.584065    2.169128
     29          1           0       -1.816228    1.084168    1.264909
     30          1           0       -3.505961   -1.774311   -1.454496
     31          1           0       -5.794579   -1.283738   -0.559147
     32          7           0       -1.218064   -0.657707   -0.662814
     33          8           0       -1.131303   -1.496167   -1.557294
     34          8           0       -0.272264   -0.042951   -0.174781
 ---------------------------------------------------------------------

 SCF Done:  E(RHF) =  -669.536409753     A.U. after   15 cycles
 E2 =    -0.2092226421D+01 EUMP2 =    -0.67162863617371D+03

 The electronic state is 1-A.
 Alpha  occ. eigenvalues --  -20.61129 -20.61122 -15.86143 -11.31393 -11.27949
 Alpha  occ. eigenvalues --  -11.27944 -11.27672 -11.26938 -11.26929 -11.20518
 Alpha  occ. eigenvalues --  -11.20153 -11.20000 -11.19986 -11.19880 -11.19835
 Alpha  occ. eigenvalues --   -1.60179  -1.39739  -1.19554  -1.08973  -1.07041
 Alpha  occ. eigenvalues --   -1.04940  -1.02264  -0.95827  -0.94756  -0.86344
 Alpha  occ. eigenvalues --   -0.85785  -0.82667  -0.78348  -0.77731  -0.76842
 Alpha  occ. eigenvalues --   -0.72400  -0.71483  -0.70664  -0.65224  -0.64944
 Alpha  occ. eigenvalues --   -0.63597  -0.62289  -0.59614  -0.58144  -0.56378
 Alpha  occ. eigenvalues --   -0.55447  -0.54036  -0.53273  -0.53031  -0.51517
 Alpha  occ. eigenvalues --   -0.51203  -0.49245  -0.49120  -0.48586  -0.46687
 Alpha  occ. eigenvalues --   -0.45371  -0.45125  -0.44406  -0.44190  -0.42497
 Alpha  occ. eigenvalues --   -0.37528  -0.36536
 Alpha virt. eigenvalues --    0.04773   0.11117   0.16272   0.20985   0.24117
 Alpha virt. eigenvalues --    0.25026   0.26791   0.27521   0.28598   0.28923
 Alpha virt. eigenvalues --    0.29186   0.30623   0.31607   0.32790   0.32988

 Mulliken charges:
               1
     1  C   -0.297280
     2  C   -0.298800
     3  C   -0.475952
     4  H    0.160188
     5  H    0.139241
     6  H    0.171352
     7  H    0.142607
     8  H    0.147577
     9  H    0.155726
    10  H    0.153851
    11  C   -0.299936
    12  C   -0.298677
    13  C   -0.475249
    14  H    0.160532
    15  H    0.143769
    16  H    0.151888
    17  H    0.147260
    18  H    0.152874
    19  H    0.156720
    20  H    0.155842
    21  C   -0.170300
    22  C   -0.218628
    23  C   -0.170638
    24  C    0.157243
    25  C   -0.170350
    26  C   -0.218619
    27  H    0.226427
    28  H    0.224422
    29  H    0.276093
    30  H    0.276006
    31  H    0.224167
    32  N    0.494318
    33  O   -0.458173
    34  O   -0.465502
 Sum of Mulliken charges =  -0.00000

 Dipole moment (field-independent basis, Debye):
    X=             -5.1988    Y=              0.8190    Z=              1.8018  Tot=              5.5628
 Quadrupole moment (field-independent basis, Debye-Ang):
   XX=            -71.0671   YY=            -95.2829   ZZ=            -93.8473
   XY=              1.1733   XZ=             -3.1169   YZ=              1.7740

 Normal termination of Gaussian 16 at Thu May  6 17:08:53 2021.
