 Gaussian 16, Revision A.03,
 Gaussian 16:  EM64L-G16RevA.03 25-Dec-2016

 -------------
 #p 6-31g* mp2
 -------------

 ------------------------------------------------------
 Input file generated by CHIRIPA (05-May-2021 14:51:13)
 ------------------------------------------------------
 Symbolic Z-matrix:
 Charge =  0 Multiplicity = 1

                         Standard orientation:
 ---------------------------------------------------------------------
 Center     Atomic      Atomic             Coordinates (Angstroms)
 Number     Number       Type             X           Y           Z
 ---------------------------------------------------------------------
      1          6           0        3.233216    0.959159    0.010639
      2          6           0        4.287704    2.066173    0.034287
      3          6           0        3.674814    3.464876    0.110391
      4          1           0        2.565627    1.115709   -0.847709
      5          1           0        2.608414    1.038218    0.911065
      6          1           0        4.911207    1.984200   -0.865235
      7          1           0        4.952977    1.906861    0.892568
      8          1           0        3.068193    3.570931    1.015578
      9          1           0        3.026185    3.648710   -0.752214
     10          1           0        4.446373    4.240960    0.126202
     11          6           0        3.830433   -0.444867   -0.065327
     12          6           0        2.775945   -1.551882   -0.088975
     13          6           0        3.388835   -2.950584   -0.165079
     14          1           0        4.455235   -0.523926   -0.965753
     15          1           0        4.498023   -0.601418    0.793021
     16          1           0        2.110672   -1.392569   -0.947256
     17          1           0        2.152442   -1.469908    0.810547
     18          1           0        4.037464   -3.134418    0.697525
     19          1           0        3.995457   -3.056640   -1.070266
     20          1           0        2.617276   -3.726669   -0.180890
     21          6           0       -2.900343   -0.544845   -0.291861
     22          6           0       -2.103741   -1.449739    0.648660
     23          6           0       -0.843224   -2.017651   -0.004309
     24          1           0       -3.175569   -1.112864   -1.191055
     25          1           0       -2.256937    0.280044   -0.627987
     26          1           0       -2.748876   -2.271909    0.984003
     27          1           0       -1.830544   -0.879556    1.545806
     28          1           0       -0.177160   -1.209502   -0.323454
     29          1           0       -1.100709   -2.609765   -0.888449
     30          1           0       -0.288976   -2.661590    0.685626
     31          6           0       -4.163307    0.030554    0.346549
     32          6           0       -4.959908    0.935447   -0.593971
     33          6           0       -6.220425    1.503359    0.058997
     34          1           0       -4.806712   -0.794336    0.682675
     35          1           0       -3.888081    0.598573    1.245743
     36          1           0       -5.233105    0.365264   -1.491118
     37          1           0       -4.314773    1.757616   -0.929315
     38          1           0       -5.962940    2.095473    0.943137
     39          1           0       -6.886489    0.695209    0.378142
     40          1           0       -6.774672    2.147299   -0.630938
 ---------------------------------------------------------------------

 SCF Done:  E(RHF) =  -470.732073691     A.U. after   11 cycles
 E2 =    -0.1583266854D+01 EUMP2 =    -0.47231534054502D+03

 The electronic state is 1-A.
 Alpha  occ. eigenvalues --  -11.21610 -11.21586 -11.21540 -11.21475 -11.21399
 Alpha  occ. eigenvalues --  -11.21378 -11.21318 -11.21312 -11.21086 -11.21059
 Alpha  occ. eigenvalues --  -11.21013 -11.20924  -1.08426  -1.08383  -1.03554
 Alpha  occ. eigenvalues --   -1.03440  -0.95999  -0.95901  -0.87024  -0.86919
 Alpha  occ. eigenvalues --   -0.79755  -0.79404  -0.78287  -0.78135  -0.65043
 Alpha  occ. eigenvalues --   -0.65030  -0.60911  -0.60905  -0.59454  -0.59199
 Alpha  occ. eigenvalues --   -0.57582  -0.57544  -0.55248  -0.55234  -0.52713
 Alpha  occ. eigenvalues --   -0.52569  -0.52446  -0.52311  -0.49952  -0.49897
 Alpha  occ. eigenvalues --   -0.48040  -0.47718  -0.46628  -0.46572  -0.45864
 Alpha  occ. eigenvalues --   -0.45727  -0.45674  -0.45434  -0.43782  -0.43693
 Alpha virt. eigenvalues --    0.22076   0.23092   0.23603   0.24696   0.25740
 Alpha virt. eigenvalues --    0.26694   0.26834   0.27261   0.27790   0.29220
 Alpha virt. eigenvalues --    0.30772   0.30932   0.31586   0.31803   0.32545

 Mulliken charges:
               1
     1  C   -0.298728
     2  C   -0.299408
     3  C   -0.475715
     4  H    0.148821
     5  H    0.149103
     6  H    0.152080
     7  H    0.152090
     8  H    0.155000
     9  H    0.155034
    10  H    0.160347
    11  C   -0.298060
    12  C   -0.301188
    13  C   -0.476967
    14  H    0.149064
    15  H    0.149167
    16  H    0.154876
    17  H    0.154412
    18  H    0.154582
    19  H    0.154844
    20  H    0.161173
    21  C   -0.298460
    22  C   -0.300100
    23  C   -0.478036
    24  H    0.149441
    25  H    0.149506
    26  H    0.151251
    27  H    0.151260
    28  H    0.161004
    29  H    0.153483
    30  H    0.160339
    31  C   -0.298182
    32  C   -0.299626
    33  C   -0.475680
    34  H    0.149476
    35  H    0.149560
    36  H    0.151853
    37  H    0.151893
    38  H    0.155159
    39  H    0.155146
    40  H    0.160188
 Sum of Mulliken charges =  -0.00000

 Dipole moment (field-independent basis, Debye):
    X=              0.0189    Y=             -0.0060    Z=             -0.0075  Tot=              0.0212
 Quadrupole moment (field-independent basis, Debye-Ang):
   XX=            -85.7006   YY=            -85.5784   ZZ=            -83.7450
   XY=              1.1734   XZ=              0.5393   YZ=              0.0171

 Normal termination of Gaussian 16 at Thu May  6 03:56:43 2021.
