 Gaussian 16, Revision A.03,
 Gaussian 16:  EM64L-G16RevA.03 25-Dec-2016

 -------------
 #p 6-31g* mp2
 -------------

 ------------------------------------------------------
 Input file generated by CHIRIPA (05-May-2021 14:51:14)
 ------------------------------------------------------
 Symbolic Z-matrix:
 Charge =  0 Multiplicity = 1

                         Standard orientation:
 ---------------------------------------------------------------------
 Center     Atomic      Atomic             Coordinates (Angstroms)
 Number     Number       Type             X           Y           Z
 ---------------------------------------------------------------------
      1          6           0        2.727014    1.211205    0.374613
      2          6           0        2.126140    2.477475   -0.236529
      3          6           0        2.214182    3.684229    0.698237
      4          1           0        2.209490    0.985351    1.317005
      5          1           0        3.778199    1.400257    0.632808
      6          1           0        1.076789    2.285660   -0.494766
      7          1           0        2.645026    2.700232   -1.177673
      8          1           0        3.257578    3.903728    0.946721
      9          1           0        1.680431    3.486800    1.633508
     10          1           0        1.778864    4.578489    0.241447
     11          6           0        2.646479   -0.003781   -0.547911
     12          6           0        3.247354   -1.270052    0.063231
     13          6           0        3.159312   -2.476805   -0.871535
     14          1           0        1.595294   -0.192834   -0.806106
     15          1           0        3.164004    0.222072   -1.490304
     16          1           0        2.728468   -1.492809    1.004375
     17          1           0        4.296705   -1.078236    0.321468
     18          1           0        3.693063   -2.279377   -1.806807
     19          1           0        2.115915   -2.696305   -1.120020
     20          1           0        3.594629   -3.371066   -0.414745
     21          6           0       -2.938346   -0.053111   -0.379149
     22          6           0       -4.104109    0.747369    0.202414
     23          6           0       -4.596355    1.845192   -0.741127
     24          1           0       -2.110986    0.631633   -0.610555
     25          1           0       -3.249773   -0.500700   -1.333125
     26          1           0       -3.791015    1.192177    1.155690
     27          1           0       -4.928717    0.060615    0.432641
     28          1           0       -4.935052    1.415026   -1.689199
     29          1           0       -3.790885    2.553017   -0.962042
     30          1           0       -5.429909    2.404941   -0.305547
     31          6           0       -2.435148   -1.154313    0.552447
     32          6           0       -1.269385   -1.954792   -0.029116
     33          6           0       -0.777139   -3.052616    0.914424
     34          1           0       -2.123719   -0.706723    1.506423
     35          1           0       -3.262507   -1.839056    0.783854
     36          1           0       -0.444776   -1.268038   -0.259343
     37          1           0       -1.582478   -2.399601   -0.982392
     38          1           0       -1.582608   -3.760440    1.135340
     39          1           0       -0.438442   -2.622449    1.862497
     40          1           0        0.056415   -3.612365    0.478845
 ---------------------------------------------------------------------

 SCF Done:  E(RHF) =  -470.733216610     A.U. after   11 cycles
 E2 =    -0.1583870526D+01 EUMP2 =    -0.47231708713609D+03

 The electronic state is 1-A.
 Alpha  occ. eigenvalues --  -11.21658 -11.21651 -11.21641 -11.21603 -11.21464
 Alpha  occ. eigenvalues --  -11.21431 -11.21404 -11.21365 -11.21119 -11.21111
 Alpha  occ. eigenvalues --  -11.21097 -11.21065  -1.08503  -1.08444  -1.03606
 Alpha  occ. eigenvalues --   -1.03528  -0.96041  -0.95989  -0.87062  -0.86999
 Alpha  occ. eigenvalues --   -0.79673  -0.79595  -0.78367  -0.78208  -0.65310
 Alpha  occ. eigenvalues --   -0.64932  -0.61147  -0.60815  -0.59398  -0.59345
 Alpha  occ. eigenvalues --   -0.57656  -0.57592  -0.55319  -0.55292  -0.52726
 Alpha  occ. eigenvalues --   -0.52687  -0.52503  -0.52374  -0.50026  -0.49902
 Alpha  occ. eigenvalues --   -0.48000  -0.47901  -0.46868  -0.46555  -0.46107
 Alpha  occ. eigenvalues --   -0.45805  -0.45780  -0.45305  -0.43833  -0.43807
 Alpha virt. eigenvalues --    0.19510   0.22400   0.23736   0.24923   0.25429
 Alpha virt. eigenvalues --    0.26503   0.26724   0.27431   0.28711   0.29681
 Alpha virt. eigenvalues --    0.30597   0.31227   0.31577   0.31769   0.32078

 Mulliken charges:
               1
     1  C   -0.298072
     2  C   -0.299807
     3  C   -0.475719
     4  H    0.149163
     5  H    0.149895
     6  H    0.151039
     7  H    0.152394
     8  H    0.155463
     9  H    0.155023
    10  H    0.160385
    11  C   -0.305829
    12  C   -0.299904
    13  C   -0.479028
    14  H    0.155842
    15  H    0.150119
    16  H    0.153041
    17  H    0.152025
    18  H    0.155113
    19  H    0.158605
    20  H    0.160156
    21  C   -0.298633
    22  C   -0.299698
    23  C   -0.475764
    24  H    0.148995
    25  H    0.149914
    26  H    0.151964
    27  H    0.152159
    28  H    0.155297
    29  H    0.155280
    30  H    0.160423
    31  C   -0.297641
    32  C   -0.309211
    33  C   -0.478064
    34  H    0.149266
    35  H    0.150098
    36  H    0.159740
    37  H    0.152265
    38  H    0.155551
    39  H    0.154797
    40  H    0.163358
 Sum of Mulliken charges =  -0.00000

 Dipole moment (field-independent basis, Debye):
    X=             -0.0052    Y=             -0.0100    Z=             -0.0051  Tot=              0.0124
 Quadrupole moment (field-independent basis, Debye-Ang):
   XX=            -83.6486   YY=            -85.8672   ZZ=            -85.0968
   XY=              1.0955   XZ=             -0.3424   YZ=              0.1197

 Normal termination of Gaussian 16 at Wed May  5 20:01:46 2021.
