 Gaussian 16, Revision A.03,
 Gaussian 16:  EM64L-G16RevA.03 25-Dec-2016

 -------------
 #p 6-31g* mp2
 -------------

 ------------------------------------------------------
 Input file generated by CHIRIPA (05-May-2021 14:51:11)
 ------------------------------------------------------
 Symbolic Z-matrix:
 Charge =  0 Multiplicity = 1

                         Standard orientation:
 ---------------------------------------------------------------------
 Center     Atomic      Atomic             Coordinates (Angstroms)
 Number     Number       Type             X           Y           Z
 ---------------------------------------------------------------------
      1          6           0       -3.331456   -0.654397   -0.068001
      2          6           0       -1.965029   -0.363638    0.553547
      3          6           0       -0.946246   -1.472073    0.286624
      4          1           0       -3.711592   -1.606581    0.326699
      5          1           0       -3.212014   -0.790690   -1.151769
      6          1           0       -2.087217   -0.226565    1.635627
      7          1           0       -1.588188    0.588059    0.157467
      8          1           0       -0.794967   -1.605294   -0.789465
      9          1           0       -1.296832   -2.424546    0.697093
     10          1           0        0.023452   -1.243729    0.739839
     11          6           0       -4.360667    0.444596    0.190199
     12          6           0       -5.727094    0.153837   -0.431349
     13          6           0       -6.745876    1.262272   -0.164426
     14          1           0       -4.480109    0.580889    1.273966
     15          1           0       -3.980530    1.396780   -0.204501
     16          1           0       -6.103935   -0.797860   -0.035269
     17          1           0       -5.604905    0.016764   -1.513429
     18          1           0       -6.395290    2.214745   -0.574896
     19          1           0       -6.897155    1.395493    0.911663
     20          1           0       -7.715575    1.033928   -0.617641
     21          6           0        3.631776    0.819633    0.102214
     22          6           0        4.695758    1.864120   -0.236862
     23          6           0        4.252329    3.289137    0.095543
     24          1           0        2.708604    1.054931   -0.444898
     25          1           0        3.387731    0.888710    1.171357
     26          1           0        4.938729    1.792165   -1.304760
     27          1           0        5.616566    1.626200    0.310973
     28          1           0        4.028772    3.383895    1.163083
     29          1           0        3.347083    3.550804   -0.461829
     30          1           0        5.027929    4.019637   -0.154804
     31          6           0        4.060346   -0.609832   -0.224412
     32          6           0        2.996364   -1.654319    0.114664
     33          6           0        3.439794   -3.079335   -0.217740
     34          1           0        4.304393   -0.678908   -1.293554
     35          1           0        4.983519   -0.845130    0.322700
     36          1           0        2.075556   -1.416398   -0.433171
     37          1           0        2.753394   -1.582364    1.182562
     38          1           0        4.345039   -3.341003    0.339631
     39          1           0        3.663350   -3.174094   -1.285282
     40          1           0        2.664194   -3.809836    0.032606
 ---------------------------------------------------------------------

 SCF Done:  E(RHF) =  -470.732788873     A.U. after   11 cycles
 E2 =    -0.1582766842D+01 EUMP2 =    -0.47231555571452D+03

 The electronic state is 1-A.
 Alpha  occ. eigenvalues --  -11.21600 -11.21593 -11.21570 -11.21520 -11.21392
 Alpha  occ. eigenvalues --  -11.21388 -11.21328 -11.21326 -11.21072 -11.21065
 Alpha  occ. eigenvalues --  -11.21025 -11.20976  -1.08425  -1.08400  -1.03542
 Alpha  occ. eigenvalues --   -1.03475  -0.95984  -0.95933  -0.87021  -0.86935
 Alpha  occ. eigenvalues --   -0.79691  -0.79473  -0.78255  -0.78200  -0.65071
 Alpha  occ. eigenvalues --   -0.65020  -0.60969  -0.60855  -0.59524  -0.59160
 Alpha  occ. eigenvalues --   -0.57640  -0.57489  -0.55277  -0.55218  -0.52764
 Alpha  occ. eigenvalues --   -0.52590  -0.52414  -0.52325  -0.49958  -0.49852
 Alpha  occ. eigenvalues --   -0.48003  -0.47760  -0.46693  -0.46523  -0.45772
 Alpha  occ. eigenvalues --   -0.45769  -0.45713  -0.45655  -0.43801  -0.43634
 Alpha virt. eigenvalues --    0.22200   0.23088   0.23755   0.24657   0.26352
 Alpha virt. eigenvalues --    0.26577   0.26833   0.27446   0.27985   0.29020
 Alpha virt. eigenvalues --    0.30544   0.31183   0.31446   0.31962   0.32073

 Mulliken charges:
               1
     1  C   -0.298415
     2  C   -0.299376
     3  C   -0.481837
     4  H    0.149584
     5  H    0.149270
     6  H    0.151749
     7  H    0.151572
     8  H    0.153669
     9  H    0.154457
    10  H    0.169242
    11  C   -0.298210
    12  C   -0.299601
    13  C   -0.475684
    14  H    0.149503
    15  H    0.149539
    16  H    0.151918
    17  H    0.151841
    18  H    0.155146
    19  H    0.155179
    20  H    0.160207
    21  C   -0.298647
    22  C   -0.299525
    23  C   -0.475677
    24  H    0.149462
    25  H    0.149226
    26  H    0.151916
    27  H    0.152022
    28  H    0.155200
    29  H    0.155050
    30  H    0.160248
    31  C   -0.297629
    32  C   -0.305584
    33  C   -0.475659
    34  H    0.149271
    35  H    0.149335
    36  H    0.159794
    37  H    0.150881
    38  H    0.154762
    39  H    0.154840
    40  H    0.160958
 Sum of Mulliken charges =  -0.00000

 Dipole moment (field-independent basis, Debye):
    X=              0.0110    Y=             -0.0074    Z=              0.0025  Tot=              0.0135
 Quadrupole moment (field-independent basis, Debye-Ang):
   XX=            -85.4842   YY=            -86.2711   ZZ=            -83.1871
   XY=              0.8905   XZ=              0.2222   YZ=             -0.7942

 Normal termination of Gaussian 16 at Wed May  5 21:28:37 2021.
