 Gaussian 16, Revision A.03,
 Gaussian 16:  EM64L-G16RevA.03 25-Dec-2016

 -------------
 #p 6-31g* mp2
 -------------

 ------------------------------------------------------
 Input file generated by CHIRIPA (05-May-2021 14:55:24)
 ------------------------------------------------------
 Symbolic Z-matrix:
 Charge =  0 Multiplicity = 1

                         Standard orientation:
 ---------------------------------------------------------------------
 Center     Atomic      Atomic             Coordinates (Angstroms)
 Number     Number       Type             X           Y           Z
 ---------------------------------------------------------------------
      1          6           0        2.669263    2.558769    0.135193
      2          6           0        2.721815    2.058553   -1.170006
      3          6           0        2.760705    0.680286   -1.401125
      4          6           0        2.745585   -0.172917   -0.298807
      5          6           0        2.693559    0.294804    1.013375
      6          6           0        2.655328    1.676853    1.220803
      7          1           0        2.639308    3.630909    0.305530
      8          1           0        2.732751    2.741104   -2.015020
      9          1           0        2.801682    0.265984   -2.401172
     10          1           0        2.683861   -0.410422    1.835555
     11          1           0        2.614547    2.062492    2.235527
     12          7           0        2.786408   -1.634029   -0.530942
     13          8           0        2.772070   -2.364743    0.457231
     14          8           0        2.831969   -2.020867   -1.696669
     15          6           0       -3.111481   -0.387864    0.914376
     16          6           0       -1.641616    0.033044    0.932165
     17          6           0       -0.866068   -0.577129    2.100073
     18          1           0       -3.582056   -0.093602    1.862488
     19          1           0       -3.171222   -1.483836    0.862694
     20          1           0       -1.584669    1.127964    0.982402
     21          1           0       -1.174534   -0.262083   -0.016176
     22          1           0       -0.893133   -1.670506    2.051149
     23          1           0       -1.305599   -0.272562    3.055400
     24          1           0        0.182357   -0.263085    2.093523
     25          6           0       -3.899993    0.214061   -0.247374
     26          6           0       -5.369859   -0.206847   -0.265161
     27          6           0       -6.145406    0.403326   -1.433069
     28          1           0       -3.840252    1.310033   -0.195691
     29          1           0       -3.429418   -0.080201   -1.195485
     30          1           0       -5.836940    0.088281    0.683180
     31          1           0       -5.426805   -1.301767   -0.315400
     32          1           0       -5.705875    0.098759   -2.388398
     33          1           0       -6.118341    1.496703   -1.384145
     34          1           0       -7.193831    0.089282   -1.426520
 ---------------------------------------------------------------------

 SCF Done:  E(RHF) =  -669.534952657     A.U. after   15 cycles
 E2 =    -0.2092545527D+01 EUMP2 =    -0.67162749818350D+03

 The electronic state is 1-A.
 Alpha  occ. eigenvalues --  -20.60801 -20.60791 -15.85854 -11.31237 -11.27811
 Alpha  occ. eigenvalues --  -11.27804 -11.27552 -11.26825 -11.26811 -11.21579
 Alpha  occ. eigenvalues --  -11.21572 -11.21375 -11.21307 -11.21063 -11.20980
 Alpha  occ. eigenvalues --   -1.59874  -1.39426  -1.19419  -1.08802  -1.08397
 Alpha  occ. eigenvalues --   -1.04833  -1.03497  -0.95958  -0.95632  -0.86978
 Alpha  occ. eigenvalues --   -0.86214  -0.82469  -0.79565  -0.78210  -0.77514
 Alpha  occ. eigenvalues --   -0.72071  -0.71200  -0.70531  -0.65071  -0.65022
 Alpha  occ. eigenvalues --   -0.64826  -0.62199  -0.60889  -0.59353  -0.57598
 Alpha  occ. eigenvalues --   -0.55321  -0.55222  -0.53313  -0.52939  -0.52526
 Alpha  occ. eigenvalues --   -0.52269  -0.49878  -0.48832  -0.48824  -0.47884
 Alpha  occ. eigenvalues --   -0.46591  -0.45752  -0.45674  -0.44828  -0.43770
 Alpha  occ. eigenvalues --   -0.37384  -0.36360
 Alpha virt. eigenvalues --    0.04990   0.11187   0.16456   0.21210   0.22909
 Alpha virt. eigenvalues --    0.24326   0.26663   0.26755   0.27518   0.27917
 Alpha virt. eigenvalues --    0.28591   0.30839   0.31444   0.31717   0.31910

 Mulliken charges:
               1
     1  C   -0.170335
     2  C   -0.218039
     3  C   -0.171273
     4  C    0.159852
     5  C   -0.172193
     6  C   -0.217721
     7  H    0.225889
     8  H    0.223698
     9  H    0.275791
    10  H    0.277002
    11  H    0.224246
    12  N    0.488017
    13  O   -0.460034
    14  O   -0.460651
    15  C   -0.298714
    16  C   -0.297819
    17  C   -0.479774
    18  H    0.148508
    19  H    0.152603
    20  H    0.147726
    21  H    0.153131
    22  H    0.163258
    23  H    0.151929
    24  H    0.155784
    25  C   -0.298187
    26  C   -0.299732
    27  C   -0.475694
    28  H    0.147192
    29  H    0.150686
    30  H    0.151384
    31  H    0.153471
    32  H    0.155640
    33  H    0.153909
    34  H    0.160451
 Sum of Mulliken charges =  -0.00000

 Dipole moment (field-independent basis, Debye):
    X=             -0.0929    Y=              5.1083    Z=              0.7745  Tot=              5.1675
 Quadrupole moment (field-independent basis, Debye-Ang):
   XX=            -96.8463   YY=            -96.3943   ZZ=            -90.8090
   XY=             14.6316   XZ=              1.5241   YZ=             -1.8946

 Normal termination of Gaussian 16 at Thu May  6 09:31:47 2021.
