 Gaussian 16, Revision A.03,
 Gaussian 16:  EM64L-G16RevA.03 25-Dec-2016

 -------------
 #p 6-31g* mp2
 -------------

 ------------------------------------------------------
 Input file generated by CHIRIPA (05-May-2021 14:51:10)
 ------------------------------------------------------
 Symbolic Z-matrix:
 Charge =  0 Multiplicity = 1

                         Standard orientation:
 ---------------------------------------------------------------------
 Center     Atomic      Atomic             Coordinates (Angstroms)
 Number     Number       Type             X           Y           Z
 ---------------------------------------------------------------------
      1          6           0       -3.454034   -0.550993    0.120718
      2          6           0       -4.080907   -0.103276   -1.200101
      3          6           0       -5.022463   -1.151937   -1.793041
      4          1           0       -2.905450   -1.489082   -0.040493
      5          1           0       -4.253414   -0.776060    0.840254
      6          1           0       -3.280559    0.122207   -1.916492
      7          1           0       -4.627904    0.833957   -1.035768
      8          1           0       -5.840892   -1.370869   -1.099611
      9          1           0       -4.485891   -2.086663   -1.985339
     10          1           0       -5.459457   -0.811255   -2.736880
     11          6           0       -2.510279    0.486717    0.725874
     12          6           0       -1.883406    0.039000    2.046693
     13          6           0       -0.941850    1.087661    2.639633
     14          1           0       -1.710899    0.711785    0.006338
     15          1           0       -3.058863    1.424806    0.887085
     16          1           0       -1.336409   -0.898233    1.882360
     17          1           0       -2.683754   -0.186483    2.763084
     18          1           0       -1.478422    2.022388    2.831931
     19          1           0       -0.123421    1.306593    1.946203
     20          1           0       -0.504856    0.746980    3.583472
     21          6           0        3.179075    0.755136   -0.571378
     22          6           0        1.979253    1.680485   -0.776667
     23          6           0        2.389358    3.123525   -1.072038
     24          1           0        3.793474    1.139539    0.254270
     25          1           0        3.811225    0.781076   -1.469769
     26          1           0        1.348827    1.651742    0.121304
     27          1           0        1.367537    1.293729   -1.601797
     28          1           0        2.999821    3.172462   -1.979531
     29          1           0        2.981006    3.532510   -0.246639
     30          1           0        1.516229    3.767702   -1.215362
     31          6           0        2.785238   -0.690861   -0.275215
     32          6           0        3.985060   -1.616209   -0.069925
     33          6           0        3.574955   -3.059249    0.225447
     34          1           0        2.153087   -0.716802    0.623177
     35          1           0        2.170839   -1.075263   -1.100862
     36          1           0        4.596776   -1.229453    0.755204
     37          1           0        4.615486   -1.587467   -0.967897
     38          1           0        2.983307   -3.468235   -0.599953
     39          1           0        2.964492   -3.108187    1.132938
     40          1           0        4.448084   -3.703426    0.368770
 ---------------------------------------------------------------------

 SCF Done:  E(RHF) =  -470.733407578     A.U. after   11 cycles
 E2 =    -0.1583066089D+01 EUMP2 =    -0.47231647366741D+03

 The electronic state is 1-A.
 Alpha  occ. eigenvalues --  -11.21655 -11.21636 -11.21599 -11.21588 -11.21452
 Alpha  occ. eigenvalues --  -11.21392 -11.21380 -11.21320 -11.21101 -11.21100
 Alpha  occ. eigenvalues --  -11.21084 -11.21062  -1.08479  -1.08412  -1.03576
 Alpha  occ. eigenvalues --   -1.03520  -0.96014  -0.95976  -0.87035  -0.86990
 Alpha  occ. eigenvalues --   -0.79674  -0.79556  -0.78316  -0.78200  -0.65163
 Alpha  occ. eigenvalues --   -0.64998  -0.61059  -0.60848  -0.59404  -0.59322
 Alpha  occ. eigenvalues --   -0.57638  -0.57574  -0.55311  -0.55261  -0.52710
 Alpha  occ. eigenvalues --   -0.52672  -0.52453  -0.52396  -0.50035  -0.49868
 Alpha  occ. eigenvalues --   -0.48072  -0.47838  -0.46811  -0.46494  -0.45950
 Alpha  occ. eigenvalues --   -0.45780  -0.45724  -0.45456  -0.43823  -0.43775
 Alpha virt. eigenvalues --    0.20406   0.23292   0.23684   0.24314   0.25927
 Alpha virt. eigenvalues --    0.26347   0.27182   0.27884   0.28085   0.29217
 Alpha virt. eigenvalues --    0.30383   0.31476   0.31709   0.31853   0.31996

 Mulliken charges:
               1
     1  C   -0.298337
     2  C   -0.299615
     3  C   -0.475700
     4  H    0.149835
     5  H    0.149405
     6  H    0.151891
     7  H    0.151876
     8  H    0.155171
     9  H    0.155158
    10  H    0.160162
    11  C   -0.300008
    12  C   -0.299135
    13  C   -0.484121
    14  H    0.151797
    15  H    0.149345
    16  H    0.152071
    17  H    0.151940
    18  H    0.155535
    19  H    0.162045
    20  H    0.160078
    21  C   -0.297562
    22  C   -0.310255
    23  C   -0.475093
    24  H    0.149949
    25  H    0.149832
    26  H    0.160945
    27  H    0.151758
    28  H    0.155315
    29  H    0.155448
    30  H    0.160683
    31  C   -0.299452
    32  C   -0.299652
    33  C   -0.475779
    34  H    0.150072
    35  H    0.149305
    36  H    0.152232
    37  H    0.152111
    38  H    0.155048
    39  H    0.155249
    40  H    0.160455
 Sum of Mulliken charges =  -0.00000

 Dipole moment (field-independent basis, Debye):
    X=              0.0223    Y=              0.0091    Z=             -0.0067  Tot=              0.0249
 Quadrupole moment (field-independent basis, Debye-Ang):
   XX=            -84.6496   YY=            -86.1427   ZZ=            -83.9084
   XY=             -0.9351   XZ=             -0.7716   YZ=              0.2992

 Normal termination of Gaussian 16 at Wed May  5 21:26:17 2021.
