 Gaussian 16, Revision A.03,
 Gaussian 16:  EM64L-G16RevA.03 25-Dec-2016

 -------------
 #p 6-31g* mp2
 -------------

 ------------------------------------------------------
 Input file generated by CHIRIPA (05-May-2021 14:55:21)
 ------------------------------------------------------
 Symbolic Z-matrix:
 Charge =  0 Multiplicity = 1

                         Standard orientation:
 ---------------------------------------------------------------------
 Center     Atomic      Atomic             Coordinates (Angstroms)
 Number     Number       Type             X           Y           Z
 ---------------------------------------------------------------------
      1          6           0       -0.214504   -1.360531    0.858359
      2          6           0       -0.866600   -1.937417   -0.236399
      3          6           0       -2.123015   -1.474874   -0.638920
      4          6           0       -2.700817   -0.429104    0.079272
      5          6           0       -2.076348    0.166269    1.174196
      6          6           0       -0.820391   -0.312377    1.558927
      7          1           0        0.761332   -1.726100    1.164137
      8          1           0       -0.398452   -2.751563   -0.782337
      9          1           0       -2.650108   -1.903297   -1.482747
     10          1           0       -2.568221    0.976419    1.698730
     11          1           0       -0.316298    0.137546    2.409518
     12          7           0       -4.030685    0.069093   -0.337443
     13          8           0       -4.518455    0.991626    0.311904
     14          8           0       -4.560085   -0.472386   -1.305520
     15          6           0        2.475944    0.910584   -0.025060
     16          6           0        2.237060    2.352702   -0.473633
     17          6           0        0.831081    2.851015   -0.137921
     18          1           0        1.730854    0.257486   -0.499664
     19          1           0        2.309492    0.838709    1.058695
     20          1           0        2.405261    2.422127   -1.555993
     21          1           0        2.982925    3.002415    0.001944
     22          1           0        0.655653    2.810549    0.941981
     23          1           0        0.074708    2.226964   -0.624809
     24          1           0        0.681944    3.884007   -0.467383
     25          6           0        3.877053    0.398121   -0.353695
     26          6           0        4.115936   -1.043996    0.094877
     27          6           0        5.521914   -1.542310   -0.240834
     28          1           0        4.043504    0.469997   -1.437450
     29          1           0        4.622142    1.051219    0.120909
     30          1           0        3.370072   -1.693710   -0.380700
     31          1           0        3.947734   -1.113422    1.177239
     32          1           0        6.278289   -0.918259    0.246054
     33          1           0        5.697343   -1.501844   -1.320736
     34          1           0        5.671052   -2.575301    0.088628
 ---------------------------------------------------------------------

 SCF Done:  E(RHF) =  -669.534470406     A.U. after   15 cycles
 E2 =    -0.2094181294D+01 EUMP2 =    -0.67162865169995D+03

 The electronic state is 1-A.
 Alpha  occ. eigenvalues --  -20.60744 -20.60737 -15.85800 -11.31160 -11.27759
 Alpha  occ. eigenvalues --  -11.27738 -11.27437 -11.26745 -11.26706 -11.22576
 Alpha  occ. eigenvalues --  -11.22111 -11.22088 -11.22005 -11.21828 -11.21424
 Alpha  occ. eigenvalues --   -1.59820  -1.39374  -1.19349  -1.09158  -1.08722
 Alpha  occ. eigenvalues --   -1.04751  -1.04183  -0.96610  -0.95567  -0.87625
 Alpha  occ. eigenvalues --   -0.86144  -0.82403  -0.80285  -0.78994  -0.77446
 Alpha  occ. eigenvalues --   -0.72016  -0.71146  -0.70432  -0.65777  -0.64991
 Alpha  occ. eigenvalues --   -0.64748  -0.62101  -0.61579  -0.59998  -0.58239
 Alpha  occ. eigenvalues --   -0.55885  -0.55233  -0.53329  -0.53126  -0.53030
 Alpha  occ. eigenvalues --   -0.52836  -0.50557  -0.48777  -0.48771  -0.48571
 Alpha  occ. eigenvalues --   -0.47327  -0.46486  -0.46395  -0.44781  -0.44439
 Alpha  occ. eigenvalues --   -0.37201  -0.36326
 Alpha virt. eigenvalues --    0.05071   0.11181   0.16477   0.19834   0.22795
 Alpha virt. eigenvalues --    0.23060   0.25024   0.25798   0.26994   0.28178
 Alpha virt. eigenvalues --    0.29614   0.30023   0.31198   0.31483   0.31848

 Mulliken charges:
               1
     1  C   -0.170545
     2  C   -0.222060
     3  C   -0.170700
     4  C    0.156958
     5  C   -0.170580
     6  C   -0.214622
     7  H    0.231108
     8  H    0.223101
     9  H    0.275500
    10  H    0.275827
    11  H    0.222921
    12  N    0.488194
    13  O   -0.460322
    14  O   -0.460792
    15  C   -0.302177
    16  C   -0.299979
    17  C   -0.475437
    18  H    0.156119
    19  H    0.139499
    20  H    0.154205
    21  H    0.152263
    22  H    0.148035
    23  H    0.160826
    24  H    0.163088
    25  C   -0.297586
    26  C   -0.301338
    27  C   -0.475613
    28  H    0.152414
    29  H    0.151821
    30  H    0.145579
    31  H    0.147716
    32  H    0.158082
    33  H    0.157861
    34  H    0.160635
 Sum of Mulliken charges =  -0.00000

 Dipole moment (field-independent basis, Debye):
    X=              4.7580    Y=             -1.7020    Z=              1.3978  Tot=              5.2430
 Quadrupole moment (field-independent basis, Debye-Ang):
   XX=           -121.3638   YY=            -91.5393   ZZ=            -91.3448
   XY=              3.4207   XZ=             -3.3369   YZ=              2.1905

 Normal termination of Gaussian 16 at Thu May  6 04:35:16 2021.
