 Gaussian 16, Revision A.03,
 Gaussian 16:  EM64L-G16RevA.03 25-Dec-2016

 -------------
 #p 6-31g* mp2
 -------------

 ------------------------------------------------------
 Input file generated by CHIRIPA (05-May-2021 14:57:22)
 ------------------------------------------------------
 Symbolic Z-matrix:
 Charge =  0 Multiplicity = 1

                         Standard orientation:
 ---------------------------------------------------------------------
 Center     Atomic      Atomic             Coordinates (Angstroms)
 Number     Number       Type             X           Y           Z
 ---------------------------------------------------------------------
      1          6           0       -2.119449   -2.317351    0.296847
      2          6           0       -1.990046   -1.417231    1.359654
      3          6           0       -2.375435   -0.081713    1.209934
      4          6           0       -2.888586    0.321420   -0.021914
      5          6           0       -3.029816   -0.551441   -1.099624
      6          6           0       -2.638007   -1.882350   -0.927242
      7          1           0       -1.817576   -3.353023    0.421955
      8          1           0       -1.587652   -1.752258    2.311432
      9          1           0       -2.286112    0.636263    2.016129
     10          1           0       -3.434355   -0.187970   -2.036456
     11          1           0       -2.739640   -2.579180   -1.754372
     12          7           0       -3.299979    1.732833   -0.192412
     13          8           0       -3.749185    2.063088   -1.287757
     14          8           0       -3.165432    2.482118    0.772527
     15          6           0        4.030529    2.124928   -0.049095
     16          6           0        4.072668    1.282454   -1.164883
     17          6           0        3.406109    0.053597   -1.152282
     18          6           0        2.703830   -0.302817   -0.002037
     19          6           0        2.643084    0.514720    1.125452
     20          6           0        3.317130    1.739053    1.090502
     21          1           0        4.551236    3.077776   -0.067565
     22          1           0        4.625917    1.579536   -2.051282
     23          1           0        3.422176   -0.617890   -2.002144
     24          1           0        2.083295    0.191244    1.994600
     25          1           0        3.282669    2.391309    1.958499
     26          7           0        1.994212   -1.601357    0.023133
     27          8           0        1.382495   -1.892285    1.048706
     28          8           0        2.063166   -2.303639   -0.983189
 ---------------------------------------------------------------------

 SCF Done:  E(RHF) =  -868.339910505     A.U. after   16 cycles
 E2 =    -0.2599849995D+01 EUMP2 =    -0.87093976050003D+03

 The electronic state is 1-A.
 Alpha  occ. eigenvalues --  -20.61370 -20.61357 -20.60272 -20.60264 -15.86380
 Alpha  occ. eigenvalues --  -15.85314 -11.31492 -11.30389 -11.28043 -11.28020
 Alpha  occ. eigenvalues --  -11.27704 -11.26980 -11.26970 -11.26920 -11.26896
 Alpha  occ. eigenvalues --  -11.26432 -11.25828 -11.25751  -1.60419  -1.59354
 Alpha  occ. eigenvalues --   -1.39986  -1.38916  -1.19633  -1.18505  -1.09074
 Alpha  occ. eigenvalues --   -1.07910  -1.05001  -1.03869  -0.95961  -0.94809
 Alpha  occ. eigenvalues --   -0.86412  -0.85252  -0.82810  -0.81668  -0.77889
 Alpha  occ. eigenvalues --   -0.76785  -0.72649  -0.71715  -0.71537  -0.70743
 Alpha  occ. eigenvalues --   -0.70677  -0.69534  -0.65296  -0.65004  -0.64134
 Alpha  occ. eigenvalues --   -0.63831  -0.62361  -0.61236  -0.55505  -0.54260
 Alpha  occ. eigenvalues --   -0.53337  -0.53095  -0.52210  -0.51940  -0.49408
 Alpha  occ. eigenvalues --   -0.49359  -0.48311  -0.48263  -0.45451  -0.44389
 Alpha  occ. eigenvalues --   -0.37596  -0.36592  -0.36335  -0.35447
 Alpha virt. eigenvalues --    0.04624   0.05742   0.11069   0.12228   0.16213
 Alpha virt. eigenvalues --    0.17357   0.21184   0.22411   0.27080   0.27792
 Alpha virt. eigenvalues --    0.28491   0.29313   0.30813   0.31930   0.32406

 Mulliken charges:
               1
     1  C   -0.162036
     2  C   -0.206195
     3  C   -0.178794
     4  C    0.156599
     5  C   -0.173990
     6  C   -0.219639
     7  H    0.232605
     8  H    0.226375
     9  H    0.269081
    10  H    0.271783
    11  H    0.222672
    12  N    0.488269
    13  O   -0.463086
    14  O   -0.465104
    15  C   -0.169379
    16  C   -0.218050
    17  C   -0.170494
    18  C    0.159091
    19  C   -0.169404
    20  C   -0.217312
    21  H    0.227906
    22  H    0.224883
    23  H    0.275184
    24  H    0.271774
    25  H    0.225484
    26  N    0.490731
    27  O   -0.467764
    28  O   -0.461191
 Sum of Mulliken charges =  -0.00000

 Dipole moment (field-independent basis, Debye):
    X=              4.2700    Y=             -0.6002    Z=              0.5330  Tot=              4.3448
 Quadrupole moment (field-independent basis, Debye-Ang):
   XX=           -100.7074   YY=           -111.2004   ZZ=            -96.2806
   XY=             27.7684   XZ=             -2.4943   YZ=              2.2537

 Normal termination of Gaussian 16 at Fri May  7 04:49:40 2021.
