 Gaussian 16, Revision A.03,
 Gaussian 16:  EM64L-G16RevA.03 25-Dec-2016

 -------------
 #p 6-31g* mp2
 -------------

 ------------------------------------------------------
 Input file generated by CHIRIPA (05-May-2021 14:57:21)
 ------------------------------------------------------
 Symbolic Z-matrix:
 Charge =  0 Multiplicity = 1

                         Standard orientation:
 ---------------------------------------------------------------------
 Center     Atomic      Atomic             Coordinates (Angstroms)
 Number     Number       Type             X           Y           Z
 ---------------------------------------------------------------------
      1          6           0        1.875700    2.070637   -0.687523
      2          6           0        3.185981    2.137488   -1.172512
      3          6           0        4.134492    1.184699   -0.789018
      4          6           0        3.736581    0.174102    0.084853
      5          6           0        2.438829    0.080587    0.585238
      6          6           0        1.506955    1.044210    0.188260
      7          1           0        1.145336    2.814995   -0.990667
      8          1           0        3.475176    2.933510   -1.852777
      9          1           0        5.155675    1.212708   -1.149323
     10          1           0        2.180292   -0.724679    1.262086
     11          1           0        0.490087    0.989804    0.566497
     12          7           0        4.731921   -0.840307    0.497978
     13          8           0        4.356247   -1.720722    1.268936
     14          8           0        5.868895   -0.735779    0.043006
     15          6           0       -5.335111    1.225771    0.879661
     16          6           0       -4.142745    1.035873    1.585865
     17          6           0       -3.159159    0.170014    1.098630
     18          6           0       -3.402138   -0.492787   -0.103429
     19          6           0       -4.579818   -0.324569   -0.830108
     20          6           0       -5.549463    0.546143   -0.323950
     21          1           0       -6.093768    1.900276    1.265506
     22          1           0       -3.973554    1.562357    2.520869
     23          1           0       -2.226977    0.004487    1.624991
     24          1           0       -4.719809   -0.863360   -1.759369
     25          1           0       -6.474518    0.691679   -0.874530
     26          7           0       -2.368239   -1.412002   -0.629259
     27          8           0       -2.606505   -1.984140   -1.690637
     28          8           0       -1.339180   -1.542938    0.029930
 ---------------------------------------------------------------------

 SCF Done:  E(RHF) =  -868.338181502     A.U. after   16 cycles
 E2 =    -0.2599480412D+01 EUMP2 =    -0.87093766191401D+03

 The electronic state is 1-A.
 Alpha  occ. eigenvalues --  -20.61557 -20.61516 -20.60155 -20.60140 -15.86577
 Alpha  occ. eigenvalues --  -15.85201 -11.31934 -11.30517 -11.28542 -11.28439
 Alpha  occ. eigenvalues --  -11.28176 -11.27502 -11.27449 -11.27128 -11.27021
 Alpha  occ. eigenvalues --  -11.26888 -11.26168 -11.26074  -1.60596  -1.59225
 Alpha  occ. eigenvalues --   -1.40156  -1.38779  -1.20088  -1.18697  -1.09475
 Alpha  occ. eigenvalues --   -1.08121  -1.05487  -1.04083  -0.96317  -0.94957
 Alpha  occ. eigenvalues --   -0.86883  -0.85505  -0.83152  -0.81780  -0.78218
 Alpha  occ. eigenvalues --   -0.76819  -0.72792  -0.71916  -0.71425  -0.71182
 Alpha  occ. eigenvalues --   -0.70544  -0.69842  -0.65737  -0.65478  -0.64358
 Alpha  occ. eigenvalues --   -0.64112  -0.62839  -0.61428  -0.55959  -0.54653
 Alpha  occ. eigenvalues --   -0.53815  -0.53572  -0.52425  -0.52194  -0.49556
 Alpha  occ. eigenvalues --   -0.49531  -0.48185  -0.48174  -0.45550  -0.44195
 Alpha  occ. eigenvalues --   -0.38050  -0.37093  -0.36711  -0.35661
 Alpha virt. eigenvalues --    0.04287   0.05709   0.10501   0.11971   0.15809
 Alpha virt. eigenvalues --    0.17200   0.20107   0.21946   0.25393   0.27075
 Alpha virt. eigenvalues --    0.28601   0.28883   0.30226   0.31028   0.32753

 Mulliken charges:
               1
     1  C   -0.171977
     2  C   -0.218558
     3  C   -0.171629
     4  C    0.157654
     5  C   -0.166739
     6  C   -0.214155
     7  H    0.221210
     8  H    0.220462
     9  H    0.273638
    10  H    0.279740
    11  H    0.221914
    12  N    0.488207
    13  O   -0.459264
    14  O   -0.463001
    15  C   -0.170737
    16  C   -0.218196
    17  C   -0.176022
    18  C    0.159074
    19  C   -0.170738
    20  C   -0.217998
    21  H    0.227989
    22  H    0.225002
    23  H    0.271563
    24  H    0.277702
    25  H    0.226055
    26  N    0.488830
    27  O   -0.454570
    28  O   -0.465458
 Sum of Mulliken charges =  -0.00000

 Dipole moment (field-independent basis, Debye):
    X=             -7.5029    Y=              6.6688    Z=              0.3638  Tot=             10.0448
 Quadrupole moment (field-independent basis, Debye-Ang):
   XX=           -102.3398   YY=           -107.0068   ZZ=           -101.5408
   XY=              5.5271   XZ=            -11.0972   YZ=             -1.5528

 Normal termination of Gaussian 16 at Thu May  6 06:30:03 2021.
