 Gaussian 16, Revision A.03,
 Gaussian 16:  EM64L-G16RevA.03 25-Dec-2016

 -------------
 #p 6-31g* mp2
 -------------

 ------------------------------------------------------
 Input file generated by CHIRIPA (05-May-2021 14:57:22)
 ------------------------------------------------------
 Symbolic Z-matrix:
 Charge =  0 Multiplicity = 1

                         Standard orientation:
 ---------------------------------------------------------------------
 Center     Atomic      Atomic             Coordinates (Angstroms)
 Number     Number       Type             X           Y           Z
 ---------------------------------------------------------------------
      1          6           0        1.426119   -0.463244    0.571758
      2          6           0        1.775450    0.676776   -0.159571
      3          6           0        3.111996    0.932904   -0.479870
      4          6           0        4.077791    0.023756   -0.050942
      5          6           0        3.761353   -1.120884    0.679097
      6          6           0        2.418436   -1.356860    0.988025
      7          1           0        0.385383   -0.654383    0.816157
      8          1           0        1.006919    1.372511   -0.484162
      9          1           0        3.410328    1.807696   -1.044808
     10          1           0        4.549757   -1.796089    0.988834
     11          1           0        2.150065   -2.243029    1.556114
     12          7           0        5.496105    0.284240   -0.384008
     13          8           0        6.328150   -0.532202    0.005555
     14          8           0        5.748878    1.299918   -1.028323
     15          6           0       -3.880520    2.487394    0.518051
     16          6           0       -2.910629    1.663418    1.098479
     17          6           0       -2.880903    0.294435    0.816431
     18          6           0       -3.840508   -0.219444   -0.054417
     19          6           0       -4.819461    0.575586   -0.648445
     20          6           0       -4.830166    1.941810   -0.352024
     21          1           0       -3.896224    3.549781    0.742735
     22          1           0       -2.171876    2.084378    1.774557
     23          1           0       -2.141187   -0.366330    1.251895
     24          1           0       -5.542779    0.127008   -1.318524
     25          1           0       -5.584564    2.579324   -0.804247
     26          7           0       -3.819108   -1.667264   -0.360617
     27          8           0       -4.675587   -2.095554   -1.131102
     28          8           0       -2.946259   -2.346360    0.175668
 ---------------------------------------------------------------------

 SCF Done:  E(RHF) =  -868.337566258     A.U. after   16 cycles
 E2 =    -0.2599618558D+01 EUMP2 =    -0.87093718481578D+03

 The electronic state is 1-A.
 Alpha  occ. eigenvalues --  -20.61672 -20.61636 -20.60801 -20.60792 -15.86711
 Alpha  occ. eigenvalues --  -15.85853 -11.32144 -11.31235 -11.28814 -11.28633
 Alpha  occ. eigenvalues --  -11.28386 -11.27826 -11.27774 -11.27761 -11.27649
 Alpha  occ. eigenvalues --  -11.27582 -11.26871 -11.26779  -1.60725  -1.59874
 Alpha  occ. eigenvalues --   -1.40281  -1.39427  -1.20301  -1.19410  -1.09666
 Alpha  occ. eigenvalues --   -1.08808  -1.05721  -1.04813  -0.96503  -0.95641
 Alpha  occ. eigenvalues --   -0.87105  -0.86212  -0.83338  -0.82471  -0.78398
 Alpha  occ. eigenvalues --   -0.77507  -0.72927  -0.72071  -0.72047  -0.71422
 Alpha  occ. eigenvalues --   -0.71197  -0.70528  -0.65948  -0.65706  -0.65065
 Alpha  occ. eigenvalues --   -0.64818  -0.63079  -0.62157  -0.56187  -0.55346
 Alpha  occ. eigenvalues --   -0.54026  -0.53780  -0.53143  -0.52905  -0.49696
 Alpha  occ. eigenvalues --   -0.49672  -0.48831  -0.48825  -0.45671  -0.44829
 Alpha  occ. eigenvalues --   -0.38248  -0.37398  -0.37329  -0.36413
 Alpha virt. eigenvalues --    0.04120   0.05023   0.10278   0.11238   0.15623
 Alpha virt. eigenvalues --    0.16506   0.18808   0.21870   0.24856   0.26736
 Alpha virt. eigenvalues --    0.27395   0.29244   0.29943   0.30836   0.32519

 Mulliken charges:
               1
     1  C   -0.173188
     2  C   -0.221290
     3  C   -0.170751
     4  C    0.158631
     5  C   -0.170624
     6  C   -0.219445
     7  H    0.227437
     8  H    0.220839
     9  H    0.274916
    10  H    0.276522
    11  H    0.227838
    12  N    0.488011
    13  O   -0.459626
    14  O   -0.460947
    15  C   -0.170651
    16  C   -0.221244
    17  C   -0.179643
    18  C    0.161087
    19  C   -0.169817
    20  C   -0.217560
    21  H    0.228999
    22  H    0.224459
    23  H    0.272124
    24  H    0.278622
    25  H    0.227248
    26  N    0.488141
    27  O   -0.455453
    28  O   -0.464637
 Sum of Mulliken charges =  -0.00000

 Dipole moment (field-independent basis, Debye):
    X=             -5.3119    Y=              4.1951    Z=              2.1801  Tot=              7.1111
 Quadrupole moment (field-independent basis, Debye-Ang):
   XX=           -140.8790   YY=           -103.9564   ZZ=           -103.3264
   XY=            -26.0245   XZ=              4.7511   YZ=             -3.1364

 Normal termination of Gaussian 16 at Fri May  7 03:15:35 2021.
