 Gaussian 16, Revision A.03,
 Gaussian 16:  EM64L-G16RevA.03 25-Dec-2016

 -------------
 #p 6-31g* mp2
 -------------

 ------------------------------------------------------
 Input file generated by CHIRIPA (05-May-2021 14:55:23)
 ------------------------------------------------------
 Symbolic Z-matrix:
 Charge =  0 Multiplicity = 1

                         Standard orientation:
 ---------------------------------------------------------------------
 Center     Atomic      Atomic             Coordinates (Angstroms)
 Number     Number       Type             X           Y           Z
 ---------------------------------------------------------------------
      1          6           0       -1.643841    1.064067    1.875342
      2          6           0       -2.636872    0.180254    2.310411
      3          6           0       -3.465338   -0.466434    1.388463
      4          6           0       -3.272190   -0.204855    0.032896
      5          6           0       -2.291644    0.670319   -0.431744
      6          6           0       -1.474695    1.305852    0.508063
      7          1           0       -1.004742    1.562097    2.598470
      8          1           0       -2.770511   -0.009433    3.371639
      9          1           0       -4.241905   -1.155409    1.697775
     10          1           0       -2.182424    0.839252   -1.496146
     11          1           0       -0.704311    1.991735    0.167300
     12          7           0       -4.143154   -0.883570   -0.952582
     13          8           0       -3.952731   -0.636102   -2.141336
     14          8           0       -4.999746   -1.650164   -0.517586
     15          6           0        3.852403    0.865952   -0.298578
     16          6           0        2.420550    1.165197   -0.743819
     17          6           0        2.131193    2.663703   -0.836267
     18          1           0        4.031896    1.336427    0.677834
     19          1           0        4.553521    1.332876   -1.004134
     20          1           0        1.722338    0.696683   -0.038405
     21          1           0        2.244383    0.693796   -1.719196
     22          1           0        2.804446    3.142456   -1.554686
     23          1           0        2.279433    3.145360    0.135655
     24          1           0        1.102144    2.854888   -1.156213
     25          6           0        4.156928   -0.627886   -0.201428
     26          6           0        5.588780   -0.927131    0.243812
     27          6           0        5.878138   -2.425637    0.336260
     28          1           0        3.455810   -1.094810    0.504128
     29          1           0        3.977435   -1.098360   -1.177840
     30          1           0        5.764948   -0.455729    1.219190
     31          1           0        6.286993   -0.458617   -0.461601
     32          1           0        5.729897   -2.907294   -0.635662
     33          1           0        5.204885   -2.904390    1.054680
     34          1           0        6.907188   -2.616822    0.656206
 ---------------------------------------------------------------------

 SCF Done:  E(RHF) =  -669.535402674     A.U. after   15 cycles
 E2 =    -0.2091582307D+01 EUMP2 =    -0.67162698498026D+03

 The electronic state is 1-A.
 Alpha  occ. eigenvalues --  -20.60745 -20.60740 -15.85798 -11.31165 -11.27735
 Alpha  occ. eigenvalues --  -11.27722 -11.27476 -11.26753 -11.26693 -11.22393
 Alpha  occ. eigenvalues --  -11.22138 -11.22016 -11.21989 -11.21836 -11.21373
 Alpha  occ. eigenvalues --   -1.59820  -1.39374  -1.19336  -1.09023  -1.08730
 Alpha  occ. eigenvalues --   -1.04741  -1.04160  -0.96625  -0.95566  -0.87637
 Alpha  occ. eigenvalues --   -0.86134  -0.82398  -0.80221  -0.78791  -0.77446
 Alpha  occ. eigenvalues --   -0.72017  -0.71143  -0.70446  -0.65676  -0.64986
 Alpha  occ. eigenvalues --   -0.64769  -0.62178  -0.61512  -0.59991  -0.58212
 Alpha  occ. eigenvalues --   -0.55902  -0.55233  -0.53403  -0.53105  -0.53063
 Alpha  occ. eigenvalues --   -0.52652  -0.50544  -0.48774  -0.48771  -0.48538
 Alpha  occ. eigenvalues --   -0.47244  -0.46339  -0.46241  -0.44779  -0.44403
 Alpha  occ. eigenvalues --   -0.37315  -0.36326
 Alpha virt. eigenvalues --    0.05088   0.11225   0.16555   0.19934   0.22617
 Alpha virt. eigenvalues --    0.23805   0.26048   0.26134   0.26964   0.28086
 Alpha virt. eigenvalues --    0.29027   0.30159   0.30866   0.31489   0.32222

 Mulliken charges:
               1
     1  C   -0.174078
     2  C   -0.218367
     3  C   -0.171100
     4  C    0.158679
     5  C   -0.173579
     6  C   -0.223603
     7  H    0.225810
     8  H    0.223187
     9  H    0.275509
    10  H    0.275464
    11  H    0.235633
    12  N    0.488129
    13  O   -0.460395
    14  O   -0.460596
    15  C   -0.298240
    16  C   -0.304606
    17  C   -0.480773
    18  H    0.148557
    19  H    0.151770
    20  H    0.151520
    21  H    0.156607
    22  H    0.163323
    23  H    0.154233
    24  H    0.152442
    25  C   -0.298885
    26  C   -0.300085
    27  C   -0.476029
    28  H    0.149785
    29  H    0.152127
    30  H    0.151363
    31  H    0.152861
    32  H    0.156662
    33  H    0.155404
    34  H    0.161270
 Sum of Mulliken charges =  -0.00000

 Dipole moment (field-independent basis, Debye):
    X=              3.2418    Y=              2.3464    Z=              3.4340  Tot=              5.2733
 Quadrupole moment (field-independent basis, Debye-Ang):
   XX=           -113.7829   YY=            -96.4118   ZZ=            -91.0054
   XY=             -6.8480   XZ=            -13.9412   YZ=             -2.5341

 Normal termination of Gaussian 16 at Wed May  5 17:32:09 2021.
