 Gaussian 16, Revision A.03,
 Gaussian 16:  EM64L-G16RevA.03 25-Dec-2016

 -------------
 #p 6-31g* mp2
 -------------

 ------------------------------------------------------
 Input file generated by CHIRIPA (05-May-2021 14:53:14)
 ------------------------------------------------------
 Symbolic Z-matrix:
 Charge =  0 Multiplicity = 1

                         Standard orientation:
 ---------------------------------------------------------------------
 Center     Atomic      Atomic             Coordinates (Angstroms)
 Number     Number       Type             X           Y           Z
 ---------------------------------------------------------------------
      1          6           0       -3.760270   -0.083285   -0.370498
      2          6           0       -3.981854   -1.181878    0.669684
      3          6           0       -4.681094   -2.412059    0.090449
      4          1           0       -4.729450    0.210580   -0.796266
      5          1           0       -3.164319   -0.488290   -1.200080
      6          1           0       -4.576038   -0.774535    1.497713
      7          1           0       -3.012053   -1.473027    1.093164
      8          1           0       -4.088707   -2.844985   -0.722112
      9          1           0       -5.661578   -2.142524   -0.315263
     10          1           0       -4.829476   -3.184861    0.851119
     11          6           0       -3.062250    1.153040    0.193416
     12          6           0       -2.840666    2.251633   -0.846766
     13          6           0       -2.141427    3.481814   -0.267530
     14          1           0       -3.658202    1.558045    1.022998
     15          1           0       -2.093070    0.859175    0.619184
     16          1           0       -3.810467    2.542782   -1.270245
     17          1           0       -2.246482    1.844290   -1.674795
     18          1           0       -1.160942    3.212279    0.138181
     19          1           0       -2.733813    3.914740    0.545030
     20          1           0       -1.993045    4.254616   -1.028201
     21          6           0        0.487388   -1.692103    0.061362
     22          6           0        0.642434   -0.576101    0.890230
     23          6           0        1.844592    0.137486    0.902750
     24          6           0        2.875575   -0.294685    0.069928
     25          6           0        2.751735   -1.402587   -0.767036
     26          6           0        1.540676   -2.101063   -0.763172
     27          1           0       -0.449935   -2.240565    0.058001
     28          1           0       -0.173858   -0.256211    1.531621
     29          1           0        1.991657    1.004986    1.534600
     30          1           0        3.583421   -1.697382   -1.395376
     31          1           0        1.423099   -2.967394   -1.407912
     32          7           0        4.152958    0.452759    0.074509
     33          8           0        5.046087    0.051680   -0.668521
     34          8           0        4.236853    1.425531    0.821043
 ---------------------------------------------------------------------

 SCF Done:  E(RHF) =  -669.535339060     A.U. after   15 cycles
 E2 =    -0.2092402693D+01 EUMP2 =    -0.67162774175299D+03

 The electronic state is 1-A.
 Alpha  occ. eigenvalues --  -20.60789 -20.60784 -15.85843 -11.31228 -11.27802
 Alpha  occ. eigenvalues --  -11.27799 -11.27543 -11.26814 -11.26796 -11.22688
 Alpha  occ. eigenvalues --  -11.22288 -11.22220 -11.22159 -11.22018 -11.21531
 Alpha  occ. eigenvalues --   -1.59864  -1.39417  -1.19404  -1.09286  -1.08792
 Alpha  occ. eigenvalues --   -1.04811  -1.04317  -0.96750  -0.95625  -0.87765
 Alpha  occ. eigenvalues --   -0.86210  -0.82458  -0.80395  -0.79101  -0.77499
 Alpha  occ. eigenvalues --   -0.72061  -0.71188  -0.70515  -0.66004  -0.65052
 Alpha  occ. eigenvalues --   -0.64759  -0.62164  -0.61718  -0.60128  -0.58358
 Alpha  occ. eigenvalues --   -0.56050  -0.55300  -0.53426  -0.53218  -0.53115
 Alpha  occ. eigenvalues --   -0.52882  -0.50696  -0.48827  -0.48815  -0.48697
 Alpha  occ. eigenvalues --   -0.47454  -0.46613  -0.46522  -0.44819  -0.44577
 Alpha  occ. eigenvalues --   -0.37375  -0.36401
 Alpha virt. eigenvalues --    0.05025   0.11112   0.16454   0.18310   0.22867
 Alpha virt. eigenvalues --    0.23180   0.24799   0.26119   0.27169   0.27762
 Alpha virt. eigenvalues --    0.29540   0.30740   0.31096   0.31151   0.31746

 Mulliken charges:
               1
     1  C   -0.299234
     2  C   -0.301040
     3  C   -0.476128
     4  H    0.154288
     5  H    0.148665
     6  H    0.156711
     7  H    0.140489
     8  H    0.152405
     9  H    0.160011
    10  H    0.162389
    11  C   -0.302000
    12  C   -0.299963
    13  C   -0.475975
    14  H    0.151595
    15  H    0.144072
    16  H    0.153904
    17  H    0.154396
    18  H    0.154142
    19  H    0.155674
    20  H    0.164180
    21  C   -0.174147
    22  C   -0.220191
    23  C   -0.172269
    24  C    0.158618
    25  C   -0.170508
    26  C   -0.218716
    27  H    0.228656
    28  H    0.226906
    29  H    0.275962
    30  H    0.275822
    31  H    0.223732
    32  N    0.488051
    33  O   -0.460304
    34  O   -0.460194
 Sum of Mulliken charges =  -0.00000

 Dipole moment (field-independent basis, Debye):
    X=             -4.6406    Y=             -2.5566    Z=             -0.0891  Tot=              5.2990
 Quadrupole moment (field-independent basis, Debye-Ang):
   XX=           -119.1148   YY=            -92.1244   ZZ=            -92.9039
   XY=             -8.5861   XZ=             -2.0546   YZ=              2.1166

 Normal termination of Gaussian 16 at Thu May  6 07:25:59 2021.
