 Gaussian 16, Revision A.03,
 Gaussian 16:  EM64L-G16RevA.03 25-Dec-2016

 -------------
 #p 6-31g* mp2
 -------------

 ------------------------------------------------------
 Input file generated by CHIRIPA (05-May-2021 14:51:14)
 ------------------------------------------------------
 Symbolic Z-matrix:
 Charge =  0 Multiplicity = 1

                         Standard orientation:
 ---------------------------------------------------------------------
 Center     Atomic      Atomic             Coordinates (Angstroms)
 Number     Number       Type             X           Y           Z
 ---------------------------------------------------------------------
      1          6           0       -2.863082    1.408924   -0.096016
      2          6           0       -1.703131    2.122263    0.599430
      3          6           0       -1.882475    3.640113    0.641400
      4          1           0       -2.962774    1.796228   -1.119247
      5          1           0       -3.799663    1.654179    0.423659
      6          1           0       -0.768840    1.874631    0.079434
      7          1           0       -1.606067    1.733080    1.621061
      8          1           0       -2.799080    3.905027    1.178295
      9          1           0       -1.957096    4.047383   -0.372091
     10          1           0       -1.041965    4.129970    1.142843
     11          6           0       -2.698282   -0.108996   -0.145891
     12          6           0       -3.858233   -0.822334   -0.841337
     13          6           0       -3.678889   -2.340184   -0.883307
     14          1           0       -1.761701   -0.354250   -0.665566
     15          1           0       -2.598590   -0.496300    0.877340
     16          1           0       -3.955296   -0.433151   -1.862968
     17          1           0       -4.792524   -0.574703   -0.321341
     18          1           0       -3.604268   -2.747454    0.130184
     19          1           0       -2.762284   -2.605098   -1.420202
     20          1           0       -4.519398   -2.830041   -1.384750
     21          6           0        3.074939   -0.184090   -0.408013
     22          6           0        4.478593    0.314850   -0.063342
     23          6           0        5.053825    1.245838   -1.131127
     24          1           0        3.105277   -0.706333   -1.374081
     25          1           0        2.408592    0.679543   -0.540356
     26          1           0        5.141773   -0.549508    0.069670
     27          1           0        4.444946    0.835800    0.902109
     28          1           0        4.415544    2.126071   -1.259143
     29          1           0        5.116331    0.732893   -2.096312
     30          1           0        6.057768    1.590635   -0.864531
     31          6           0        2.486426   -1.115838    0.649921
     32          6           0        1.082771   -1.614780    0.305249
     33          6           0        0.507539   -2.545767    1.373034
     34          1           0        3.152772   -1.979472    0.782262
     35          1           0        2.456087   -0.593596    1.615989
     36          1           0        1.116418   -2.135728   -0.660203
     37          1           0        0.419591   -0.750421    0.172237
     38          1           0        0.445033   -2.032822    2.338218
     39          1           0        1.145820   -3.426000    1.501049
     40          1           0       -0.496404   -2.890563    1.106438
 ---------------------------------------------------------------------

 SCF Done:  E(RHF) =  -470.733100259     A.U. after   11 cycles
 E2 =    -0.1583883502D+01 EUMP2 =    -0.47231698376089D+03

 The electronic state is 1-A.
 Alpha  occ. eigenvalues --  -11.21679 -11.21617 -11.21593 -11.21499 -11.21426
 Alpha  occ. eigenvalues --  -11.21384 -11.21346 -11.21311 -11.21128 -11.21101
 Alpha  occ. eigenvalues --  -11.21068 -11.20995  -1.08481  -1.08385  -1.03573
 Alpha  occ. eigenvalues --   -1.03487  -0.96020  -0.95939  -0.87034  -0.86958
 Alpha  occ. eigenvalues --   -0.79640  -0.79573  -0.78404  -0.78096  -0.65155
 Alpha  occ. eigenvalues --   -0.64976  -0.60968  -0.60895  -0.59436  -0.59268
 Alpha  occ. eigenvalues --   -0.57655  -0.57530  -0.55310  -0.55225  -0.52722
 Alpha  occ. eigenvalues --   -0.52630  -0.52446  -0.52363  -0.49984  -0.49869
 Alpha  occ. eigenvalues --   -0.47951  -0.47915  -0.46756  -0.46669  -0.46100
 Alpha  occ. eigenvalues --   -0.45779  -0.45716  -0.45128  -0.43817  -0.43738
 Alpha virt. eigenvalues --    0.20820   0.22386   0.23562   0.24256   0.25193
 Alpha virt. eigenvalues --    0.26564   0.26984   0.27368   0.28194   0.29667
 Alpha virt. eigenvalues --    0.30863   0.31232   0.31608   0.31852   0.32506

 Mulliken charges:
               1
     1  C   -0.298079
     2  C   -0.302067
     3  C   -0.475682
     4  H    0.149619
     5  H    0.149666
     6  H    0.152759
     7  H    0.152057
     8  H    0.155612
     9  H    0.155447
    10  H    0.160196
    11  C   -0.304681
    12  C   -0.299173
    13  C   -0.476912
    14  H    0.156366
    15  H    0.150743
    16  H    0.151907
    17  H    0.151875
    18  H    0.155489
    19  H    0.155836
    20  H    0.160499
    21  C   -0.298802
    22  C   -0.299574
    23  C   -0.475713
    24  H    0.149411
    25  H    0.149038
    26  H    0.152040
    27  H    0.152027
    28  H    0.155078
    29  H    0.155082
    30  H    0.160263
    31  C   -0.297348
    32  C   -0.307427
    33  C   -0.477131
    34  H    0.149217
    35  H    0.149598
    36  H    0.150282
    37  H    0.160938
    38  H    0.154372
    39  H    0.154631
    40  H    0.162540
 Sum of Mulliken charges =  -0.00000

 Dipole moment (field-independent basis, Debye):
    X=             -0.0434    Y=              0.0140    Z=             -0.0061  Tot=              0.0460
 Quadrupole moment (field-independent basis, Debye-Ang):
   XX=            -84.7132   YY=            -85.8648   ZZ=            -84.2184
   XY=             -0.6661   XZ=             -0.2553   YZ=              0.6958

 Normal termination of Gaussian 16 at Wed May  5 21:38:49 2021.
