 Gaussian 16, Revision A.03,
 Gaussian 16:  EM64L-G16RevA.03 25-Dec-2016

 -------------
 #p 6-31g* mp2
 -------------

 ------------------------------------------------------
 Input file generated by CHIRIPA (05-May-2021 14:55:20)
 ------------------------------------------------------
 Symbolic Z-matrix:
 Charge =  0 Multiplicity = 1

                         Standard orientation:
 ---------------------------------------------------------------------
 Center     Atomic      Atomic             Coordinates (Angstroms)
 Number     Number       Type             X           Y           Z
 ---------------------------------------------------------------------
      1          6           0        2.144297    1.738182   -0.135120
      2          6           0        1.853916    0.370629   -0.179841
      3          6           0        2.882921   -0.575181   -0.146085
      4          6           0        4.196841   -0.116198   -0.067093
      5          6           0        4.518241    1.239481   -0.020996
      6          6           0        3.473190    2.167486   -0.055980
      7          1           0        1.338709    2.465994   -0.161819
      8          1           0        0.822814    0.034335   -0.241315
      9          1           0        2.686429   -1.639936   -0.179348
     10          1           0        5.555927    1.544255    0.040146
     11          1           0        3.701671    3.228912   -0.021106
     12          7           0        5.294696   -1.108060   -0.030708
     13          8           0        6.443960   -0.677979    0.039001
     14          8           0        4.985143   -2.296782   -0.072586
     15          6           0       -4.487602    0.289354   -0.093376
     16          6           0       -3.308793   -0.112105    0.793881
     17          6           0       -2.009997    0.596176    0.407537
     18          1           0       -4.243266    0.064663   -1.140638
     19          1           0       -4.629867    1.377195   -0.032071
     20          1           0       -3.169666   -1.199042    0.731998
     21          1           0       -3.556040    0.113391    1.839174
     22          1           0       -2.124970    1.682018    0.487094
     23          1           0       -1.736400    0.362128   -0.626373
     24          1           0       -1.180416    0.294547    1.054587
     25          6           0       -5.793105   -0.410371    0.280486
     26          6           0       -6.971914   -0.008913   -0.606770
     27          6           0       -8.270710   -0.717193   -0.220426
     28          1           0       -5.650841   -1.498213    0.219181
     29          1           0       -6.037442   -0.185681    1.327748
     30          1           0       -6.724667   -0.234409   -1.652063
     31          1           0       -7.111041    1.078024   -0.544888
     32          1           0       -8.544307   -0.483146    0.813483
     33          1           0       -8.155737   -1.803036   -0.299983
     34          1           0       -9.100292   -0.415564   -0.867476
 ---------------------------------------------------------------------

 SCF Done:  E(RHF) =  -669.535406599     A.U. after   15 cycles
 E2 =    -0.2091141849D+01 EUMP2 =    -0.67162654844801D+03

 The electronic state is 1-A.
 Alpha  occ. eigenvalues --  -20.60692 -20.60687 -15.85743 -11.31085 -11.27656
 Alpha  occ. eigenvalues --  -11.27632 -11.27368 -11.26667 -11.26559 -11.22527
 Alpha  occ. eigenvalues --  -11.22381 -11.22113 -11.22068 -11.21931 -11.21448
 Alpha  occ. eigenvalues --   -1.59768  -1.39322  -1.19249  -1.09124  -1.08646
 Alpha  occ. eigenvalues --   -1.04651  -1.04274  -0.96763  -0.95487  -0.87805
 Alpha  occ. eigenvalues --   -0.86038  -0.82321  -0.80359  -0.78886  -0.77373
 Alpha  occ. eigenvalues --   -0.71962  -0.71090  -0.70354  -0.65754  -0.64897
 Alpha  occ. eigenvalues --   -0.64683  -0.62071  -0.61638  -0.60123  -0.58332
 Alpha  occ. eigenvalues --   -0.56059  -0.55135  -0.53588  -0.53186  -0.52969
 Alpha  occ. eigenvalues --   -0.52605  -0.50677  -0.48720  -0.48715  -0.48660
 Alpha  occ. eigenvalues --   -0.47352  -0.46442  -0.46331  -0.44733  -0.44502
 Alpha  occ. eigenvalues --   -0.37227  -0.36250
 Alpha virt. eigenvalues --    0.05156   0.11332   0.16646   0.20561   0.22357
 Alpha virt. eigenvalues --    0.23757   0.25852   0.26097   0.26911   0.28007
 Alpha virt. eigenvalues --    0.28969   0.30138   0.30581   0.31542   0.31857

 Mulliken charges:
               1
     1  C   -0.173482
     2  C   -0.225715
     3  C   -0.172739
     4  C    0.158900
     5  C   -0.171475
     6  C   -0.218551
     7  H    0.226208
     8  H    0.234785
     9  H    0.275330
    10  H    0.275152
    11  H    0.222855
    12  N    0.488008
    13  O   -0.460789
    14  O   -0.460740
    15  C   -0.299430
    16  C   -0.298849
    17  C   -0.486356
    18  H    0.150439
    19  H    0.150068
    20  H    0.154731
    21  H    0.155827
    22  H    0.156950
    23  H    0.153516
    24  H    0.160640
    25  C   -0.299033
    26  C   -0.300131
    27  C   -0.476102
    28  H    0.150927
    29  H    0.150874
    30  H    0.152517
    31  H    0.152213
    32  H    0.155822
    33  H    0.156069
    34  H    0.161561
 Sum of Mulliken charges =  -0.00000

 Dipole moment (field-independent basis, Debye):
    X=             -4.1667    Y=              3.4903    Z=             -0.1002  Tot=              5.4363
 Quadrupole moment (field-independent basis, Debye-Ang):
   XX=           -125.5385   YY=            -92.7002   ZZ=            -95.2223
   XY=             17.5550   XZ=             -0.1654   YZ=              0.5714

 Normal termination of Gaussian 16 at Thu May  6 20:40:54 2021.
