 Gaussian 16, Revision A.03,
 Gaussian 16:  EM64L-G16RevA.03 25-Dec-2016

 -------------
 #p 6-31g* mp2
 -------------

 ------------------------------------------------------
 Input file generated by CHIRIPA (05-May-2021 14:55:19)
 ------------------------------------------------------
 Symbolic Z-matrix:
 Charge =  0 Multiplicity = 1

                         Standard orientation:
 ---------------------------------------------------------------------
 Center     Atomic      Atomic             Coordinates (Angstroms)
 Number     Number       Type             X           Y           Z
 ---------------------------------------------------------------------
      1          6           0       -0.715698    0.535312    0.829930
      2          6           0       -1.048500   -0.809826    0.639227
      3          6           0       -2.342113   -1.173368    0.253285
      4          6           0       -3.282296   -0.161306    0.066001
      5          6           0       -2.981385    1.187611    0.248120
      6          6           0       -1.681500    1.527987    0.634113
      7          1           0        0.291648    0.808723    1.129758
      8          1           0       -0.300487   -1.582881    0.790578
      9          1           0       -2.626818   -2.207033    0.098693
     10          1           0       -3.748549    1.935780    0.089630
     11          1           0       -1.425877    2.573446    0.781486
     12          7           0       -4.655106   -0.533909   -0.342605
     13          8           0       -5.465250    0.376673   -0.501174
     14          8           0       -4.894976   -1.729483   -0.496566
     15          6           0        4.478349   -0.376793   -0.082962
     16          6           0        4.010183   -1.831062   -0.145462
     17          6           0        5.155134   -2.828813    0.031672
     18          1           0        5.236629   -0.208654   -0.859935
     19          1           0        4.974365   -0.199699    0.881403
     20          1           0        3.513972   -2.004989   -1.108863
     21          1           0        3.252791   -1.995709    0.631625
     22          1           0        5.646025   -2.684027    0.999486
     23          1           0        5.908692   -2.693360   -0.750892
     24          1           0        4.798088   -3.862287   -0.016397
     25          6           0        3.345114    0.632527   -0.258399
     26          6           0        3.813280    2.086796   -0.195899
     27          6           0        2.668330    3.084547   -0.373033
     28          1           0        2.849098    0.455434   -1.222766
     29          1           0        2.586835    0.464387    0.518573
     30          1           0        4.570673    2.251443   -0.972987
     31          1           0        4.309491    2.260723    0.767501
     32          1           0        1.914773    2.949095    0.409530
     33          1           0        2.177438    2.939762   -1.340847
     34          1           0        3.025376    4.118020   -0.324965
 ---------------------------------------------------------------------

 SCF Done:  E(RHF) =  -669.535356003     A.U. after   15 cycles
 E2 =    -0.2091751343D+01 EUMP2 =    -0.67162710734558D+03

 The electronic state is 1-A.
 Alpha  occ. eigenvalues --  -20.60703 -20.60698 -15.85757 -11.31104 -11.27676
 Alpha  occ. eigenvalues --  -11.27672 -11.27374 -11.26677 -11.26667 -11.22615
 Alpha  occ. eigenvalues --  -11.22524 -11.22504 -11.22290 -11.22180 -11.21776
 Alpha  occ. eigenvalues --   -1.59780  -1.39334  -1.19275  -1.09430  -1.08668
 Alpha  occ. eigenvalues --   -1.04677  -1.04477  -0.96928  -0.95510  -0.87941
 Alpha  occ. eigenvalues --   -0.86072  -0.82349  -0.80546  -0.79262  -0.77394
 Alpha  occ. eigenvalues --   -0.71975  -0.71103  -0.70405  -0.66058  -0.64925
 Alpha  occ. eigenvalues --   -0.64675  -0.62030  -0.61867  -0.60298  -0.58539
 Alpha  occ. eigenvalues --   -0.56230  -0.55202  -0.53590  -0.53352  -0.53006
 Alpha  occ. eigenvalues --   -0.52766  -0.50873  -0.48854  -0.48731  -0.48728
 Alpha  occ. eigenvalues --   -0.47574  -0.46784  -0.46683  -0.44743  -0.44741
 Alpha  occ. eigenvalues --   -0.37238  -0.36284
 Alpha virt. eigenvalues --    0.05133   0.11357   0.16590   0.18753   0.22369
 Alpha virt. eigenvalues --    0.23013   0.24996   0.25710   0.26361   0.27862
 Alpha virt. eigenvalues --    0.29394   0.30151   0.30914   0.31057   0.31544

 Mulliken charges:
               1
     1  C   -0.173929
     2  C   -0.221311
     3  C   -0.171028
     4  C    0.158172
     5  C   -0.170956
     6  C   -0.220390
     7  H    0.233242
     8  H    0.223727
     9  H    0.275289
    10  H    0.275271
    11  H    0.223757
    12  N    0.488034
    13  O   -0.460672
    14  O   -0.460723
    15  C   -0.298407
    16  C   -0.299947
    17  C   -0.476192
    18  H    0.153832
    19  H    0.151280
    20  H    0.154064
    21  H    0.145453
    22  H    0.156527
    23  H    0.157802
    24  H    0.162177
    25  C   -0.301446
    26  C   -0.300667
    27  C   -0.476559
    28  H    0.154307
    29  H    0.138993
    30  H    0.157018
    31  H    0.153853
    32  H    0.144354
    33  H    0.159724
    34  H    0.165348
 Sum of Mulliken charges =  -0.00000

 Dipole moment (field-independent basis, Debye):
    X=              5.1277    Y=              1.3328    Z=              1.3197  Tot=              5.4600
 Quadrupole moment (field-independent basis, Debye-Ang):
   XX=           -126.2188   YY=            -90.9276   ZZ=            -94.3896
   XY=             -5.9272   XZ=             -5.0018   YZ=             -0.1681

 Normal termination of Gaussian 16 at Thu May  6 04:30:20 2021.
