 Gaussian 16, Revision A.03,
 Gaussian 16:  EM64L-G16RevA.03 25-Dec-2016

 -------------
 #p 6-31g* mp2
 -------------

 ------------------------------------------------------
 Input file generated by CHIRIPA (05-May-2021 14:57:26)
 ------------------------------------------------------
 Symbolic Z-matrix:
 Charge =  0 Multiplicity = 1

                         Standard orientation:
 ---------------------------------------------------------------------
 Center     Atomic      Atomic             Coordinates (Angstroms)
 Number     Number       Type             X           Y           Z
 ---------------------------------------------------------------------
      1          6           0       -4.449188    1.722183    0.402625
      2          6           0       -4.437851    1.046084   -0.821827
      3          6           0       -3.611464   -0.065523   -1.011467
      4          6           0       -2.805625   -0.475616    0.049541
      5          6           0       -2.794542    0.177051    1.281285
      6          6           0       -3.628944    1.286278    1.448429
      7          1           0       -5.094259    2.584782    0.541204
      8          1           0       -5.073810    1.382374   -1.635774
      9          1           0       -3.582940   -0.607421   -1.948991
     10          1           0       -2.149484   -0.181776    2.074104
     11          1           0       -3.635679    1.809408    2.400445
     12          7           0       -1.926524   -1.651164   -0.139315
     13          8           0       -1.225952   -1.992536    0.811106
     14          8           0       -1.954703   -2.208929   -1.234186
     15          6           0        2.719672    2.771062   -0.422083
     16          6           0        3.927330    2.236772    0.039021
     17          6           0        4.066567    0.859098    0.231825
     18          6           0        2.972828    0.041225   -0.047659
     19          6           0        1.756675    0.543383   -0.508198
     20          6           0        1.640101    1.924155   -0.693742
     21          1           0        2.620310    3.842476   -0.569038
     22          1           0        4.767415    2.892093    0.250810
     23          1           0        4.990084    0.418847    0.587798
     24          1           0        0.936909   -0.135137   -0.710722
     25          1           0        0.701021    2.336301   -1.051945
     26          7           0        3.108236   -1.418897    0.152610
     27          8           0        2.129729   -2.118114   -0.100876
     28          8           0        4.190312   -1.836476    0.559276
 ---------------------------------------------------------------------

 SCF Done:  E(RHF) =  -868.335342072     A.U. after   16 cycles
 E2 =    -0.2601250666D+01 EUMP2 =    -0.87093659273851D+03

 The electronic state is 1-A.
 Alpha  occ. eigenvalues --  -20.60758 -20.60692 -20.59904 -20.59776 -15.85780
 Alpha  occ. eigenvalues --  -15.84894 -11.31427 -11.30631 -11.28015 -11.28001
 Alpha  occ. eigenvalues --  -11.27786 -11.27267 -11.27226 -11.27100 -11.27069
 Alpha  occ. eigenvalues --  -11.27056 -11.26368 -11.26358  -1.59809  -1.58922
 Alpha  occ. eigenvalues --   -1.39348  -1.38455  -1.19621  -1.18851  -1.08961
 Alpha  occ. eigenvalues --   -1.08185  -1.05044  -1.04310  -0.95741  -0.94952
 Alpha  occ. eigenvalues --   -0.86426  -0.85688  -0.82556  -0.81774  -0.77571
 Alpha  occ. eigenvalues --   -0.76752  -0.71961  -0.71277  -0.71020  -0.70695
 Alpha  occ. eigenvalues --   -0.70259  -0.69953  -0.65246  -0.65026  -0.64492
 Alpha  occ. eigenvalues --   -0.64323  -0.62373  -0.61643  -0.55519  -0.54819
 Alpha  occ. eigenvalues --   -0.53388  -0.53120  -0.52623  -0.52409  -0.48741
 Alpha  occ. eigenvalues --   -0.48716  -0.47919  -0.47829  -0.44684  -0.43749
 Alpha  occ. eigenvalues --   -0.37629  -0.36864  -0.36670  -0.35929
 Alpha virt. eigenvalues --    0.04923   0.05792   0.10976   0.11721   0.16371
 Alpha virt. eigenvalues --    0.17202   0.21159   0.21708   0.27081   0.27390
 Alpha virt. eigenvalues --    0.28067   0.28532   0.30642   0.31278   0.32325

 Mulliken charges:
               1
     1  C   -0.172256
     2  C   -0.219299
     3  C   -0.173355
     4  C    0.152908
     5  C   -0.173101
     6  C   -0.219258
     7  H    0.225702
     8  H    0.223833
     9  H    0.276804
    10  H    0.278250
    11  H    0.224107
    12  N    0.483223
    13  O   -0.447788
    14  O   -0.457951
    15  C   -0.172030
    16  C   -0.219026
    17  C   -0.171310
    18  C    0.157796
    19  C   -0.170883
    20  C   -0.220133
    21  H    0.222023
    22  H    0.221155
    23  H    0.275004
    24  H    0.280613
    25  H    0.219690
    26  N    0.485644
    27  O   -0.443650
    28  O   -0.466712
 Sum of Mulliken charges =  -0.00000

 Dipole moment (field-independent basis, Debye):
    X=             -3.7050    Y=              8.9420    Z=              0.0204  Tot=              9.6792
 Quadrupole moment (field-independent basis, Debye-Ang):
   XX=            -86.7792   YY=           -109.5006   ZZ=           -100.6840
   XY=              5.7191   XZ=             -0.7725   YZ=              0.4168

 Normal termination of Gaussian 16 at Fri May  7 02:02:06 2021.
