 Gaussian 16, Revision A.03,
 Gaussian 16:  EM64L-G16RevA.03 25-Dec-2016

 -------------
 #p 6-31g* mp2
 -------------

 ------------------------------------------------------
 Input file generated by CHIRIPA (05-May-2021 14:51:07)
 ------------------------------------------------------
 Symbolic Z-matrix:
 Charge =  0 Multiplicity = 1

                         Standard orientation:
 ---------------------------------------------------------------------
 Center     Atomic      Atomic             Coordinates (Angstroms)
 Number     Number       Type             X           Y           Z
 ---------------------------------------------------------------------
      1          6           0       -2.924786   -0.174386   -0.189869
      2          6           0       -1.822119    0.005468    0.854048
      3          6           0       -0.429284   -0.297596    0.300913
      4          1           0       -2.896037   -1.204538   -0.570535
      5          1           0       -2.718999    0.481475   -1.047128
      6          1           0       -2.030664   -0.649518    1.709687
      7          1           0       -1.853619    1.035256    1.232412
      8          1           0       -0.196031    0.364383   -0.539312
      9          1           0       -0.374082   -1.329963   -0.059325
     10          1           0        0.343759   -0.162702    1.063846
     11          6           0       -4.322926    0.124922    0.348043
     12          6           0       -5.425593   -0.054932   -0.695874
     13          6           0       -6.818427    0.248131   -0.142739
     14          1           0       -4.528713   -0.530939    1.205302
     15          1           0       -4.351674    1.155073    0.728709
     16          1           0       -5.394093   -1.084721   -1.074238
     17          1           0       -5.217047    0.600053   -1.551513
     18          1           0       -6.873629    1.280499    0.217499
     19          1           0       -7.051681   -0.413848    0.697486
     20          1           0       -7.591471    0.113237   -0.905673
     21          6           0        3.995203    0.678671   -0.212866
     22          6           0        3.169161    1.923009    0.114650
     23          6           0        3.925638    3.223422   -0.158225
     24          1           0        4.922055    0.696004    0.376701
     25          1           0        4.295928    0.714290   -1.269129
     26          1           0        2.868915    1.884370    1.169627
     27          1           0        2.244078    1.902615   -0.475622
     28          1           0        4.211884    3.288535   -1.212941
     29          1           0        4.840272    3.270186    0.441656
     30          1           0        3.316642    4.100290    0.082785
     31          6           0        3.252509   -0.629207    0.054692
     32          6           0        4.078551   -1.873543   -0.272824
     33          6           0        3.322074   -3.173957    0.000052
     34          1           0        2.951784   -0.664826    1.110954
     35          1           0        2.325657   -0.646539   -0.534875
     36          1           0        5.003634   -1.853151    0.317449
     37          1           0        4.378797   -1.834905   -1.327800
     38          1           0        2.407440   -3.220722   -0.599831
     39          1           0        3.035827   -3.239071    1.054767
     40          1           0        3.931069   -4.050825   -0.240959
 ---------------------------------------------------------------------

 SCF Done:  E(RHF) =  -470.732372997     A.U. after   11 cycles
 E2 =    -0.1583618754D+01 EUMP2 =    -0.47231599175162D+03

 The electronic state is 1-A.
 Alpha  occ. eigenvalues --  -11.21593 -11.21555 -11.21547 -11.21526 -11.21387
 Alpha  occ. eigenvalues --  -11.21327 -11.21319 -11.21212 -11.21065 -11.21044
 Alpha  occ. eigenvalues --  -11.21027 -11.20988  -1.08421  -1.08352  -1.03508
 Alpha  occ. eigenvalues --   -1.03474  -0.96002  -0.95885  -0.87027  -0.86906
 Alpha  occ. eigenvalues --   -0.79645  -0.79520  -0.78284  -0.78071  -0.65051
 Alpha  occ. eigenvalues --   -0.64988  -0.60939  -0.60845  -0.59347  -0.59289
 Alpha  occ. eigenvalues --   -0.57617  -0.57486  -0.55261  -0.55204  -0.52841
 Alpha  occ. eigenvalues --   -0.52572  -0.52394  -0.52245  -0.49915  -0.49868
 Alpha  occ. eigenvalues --   -0.47922  -0.47850  -0.46666  -0.46515  -0.45915
 Alpha  occ. eigenvalues --   -0.45699  -0.45695  -0.45458  -0.43753  -0.43595
 Alpha virt. eigenvalues --    0.21737   0.23060   0.24017   0.24231   0.25075
 Alpha virt. eigenvalues --    0.26145   0.26616   0.27681   0.27836   0.29855
 Alpha virt. eigenvalues --    0.30020   0.31407   0.31728   0.31851   0.32247

 Mulliken charges:
               1
     1  C   -0.298448
     2  C   -0.301205
     3  C   -0.478386
     4  H    0.149423
     5  H    0.149115
     6  H    0.151638
     7  H    0.151783
     8  H    0.154105
     9  H    0.154332
    10  H    0.166479
    11  C   -0.298189
    12  C   -0.299581
    13  C   -0.475685
    14  H    0.149509
    15  H    0.149588
    16  H    0.151886
    17  H    0.151811
    18  H    0.155154
    19  H    0.155180
    20  H    0.160199
    21  C   -0.297787
    22  C   -0.301322
    23  C   -0.475644
    24  H    0.148973
    25  H    0.148911
    26  H    0.151189
    27  H    0.154103
    28  H    0.155014
    29  H    0.155103
    30  H    0.159907
    31  C   -0.304342
    32  C   -0.299066
    33  C   -0.475784
    34  H    0.148024
    35  H    0.161399
    36  H    0.151257
    37  H    0.151393
    38  H    0.155112
    39  H    0.154916
    40  H    0.159932
 Sum of Mulliken charges =  -0.00000

 Dipole moment (field-independent basis, Debye):
    X=             -0.0049    Y=             -0.0042    Z=             -0.0014  Tot=              0.0067
 Quadrupole moment (field-independent basis, Debye-Ang):
   XX=            -86.2835   YY=            -85.0023   ZZ=            -83.8774
   XY=             -0.1236   XZ=              0.6298   YZ=             -0.1868

 Normal termination of Gaussian 16 at Thu May  6 03:39:13 2021.
