 Gaussian 16, Revision A.03,
 Gaussian 16:  EM64L-G16RevA.03 25-Dec-2016

 -------------
 #p 6-31g* mp2
 -------------

 ------------------------------------------------------
 Input file generated by CHIRIPA (05-May-2021 14:51:12)
 ------------------------------------------------------
 Symbolic Z-matrix:
 Charge =  0 Multiplicity = 1

                         Standard orientation:
 ---------------------------------------------------------------------
 Center     Atomic      Atomic             Coordinates (Angstroms)
 Number     Number       Type             X           Y           Z
 ---------------------------------------------------------------------
      1          6           0       -3.536025   -0.504183    0.236611
      2          6           0       -3.380461   -1.678809   -0.729846
      3          6           0       -2.619956   -2.853885   -0.114523
      4          1           0       -2.540901   -0.169622    0.560248
      5          1           0       -4.059128   -0.848176    1.139621
      6          1           0       -2.859033   -1.332379   -1.631353
      7          1           0       -4.376065   -2.010490   -1.051369
      8          1           0       -3.140427   -3.227013    0.773445
      9          1           0       -1.614776   -2.545050    0.190165
     10          1           0       -2.520260   -3.682501   -0.822560
     11          6           0       -4.294204    0.678226   -0.364056
     12          6           0       -4.449769    1.852852    0.602401
     13          6           0       -5.210273    3.027928   -0.012923
     14          1           0       -3.771102    1.022220   -1.267066
     15          1           0       -5.289329    0.343665   -0.687694
     16          1           0       -3.454165    2.184533    0.923924
     17          1           0       -4.971196    1.506422    1.503908
     18          1           0       -6.215453    2.719093   -0.317611
     19          1           0       -4.689802    3.401056   -0.900891
     20          1           0       -5.309969    3.856544    0.695114
     21          6           0        3.456956   -0.505037    0.509576
     22          6           0        2.402805   -1.290523   -0.271298
     23          6           0        1.493863   -2.121899    0.634478
     24          1           0        4.065094   -1.205230    1.098510
     25          1           0        2.953616    0.154328    1.230188
     26          1           0        2.907942   -1.947196   -0.991183
     27          1           0        1.797230   -0.588396   -0.858590
     28          1           0        0.963818   -1.478080    1.343809
     29          1           0        2.080841   -2.844600    1.210463
     30          1           0        0.747817   -2.675247    0.055616
     31          6           0        4.373273    0.330994   -0.382131
     32          6           0        5.427424    1.116480    0.398744
     33          6           0        6.336367    1.947855   -0.507033
     34          1           0        4.876614   -0.328372   -1.102742
     35          1           0        3.765136    1.031187   -0.971065
     36          1           0        6.032999    0.414353    0.986035
     37          1           0        4.922287    1.773154    1.118628
     38          1           0        5.749388    2.670557   -1.083019
     39          1           0        6.866411    1.304036   -1.216365
     40          1           0        7.082413    2.501203    0.071830
 ---------------------------------------------------------------------

 SCF Done:  E(RHF) =  -470.733203148     A.U. after   11 cycles
 E2 =    -0.1582343390D+01 EUMP2 =    -0.47231554653773D+03

 The electronic state is 1-A.
 Alpha  occ. eigenvalues --  -11.21643 -11.21622 -11.21603 -11.21568 -11.21434
 Alpha  occ. eigenvalues --  -11.21393 -11.21374 -11.21333 -11.21101 -11.21088
 Alpha  occ. eigenvalues --  -11.21074 -11.20978  -1.08461  -1.08414  -1.03568
 Alpha  occ. eigenvalues --   -1.03502  -0.96035  -0.95937  -0.87073  -0.86935
 Alpha  occ. eigenvalues --   -0.79656  -0.79542  -0.78273  -0.78226  -0.65099
 Alpha  occ. eigenvalues --   -0.65040  -0.61008  -0.60889  -0.59398  -0.59322
 Alpha  occ. eigenvalues --   -0.57670  -0.57530  -0.55358  -0.55199  -0.52814
 Alpha  occ. eigenvalues --   -0.52637  -0.52450  -0.52280  -0.50002  -0.49823
 Alpha  occ. eigenvalues --   -0.47963  -0.47858  -0.46690  -0.46564  -0.45815
 Alpha  occ. eigenvalues --   -0.45772  -0.45735  -0.45688  -0.43787  -0.43757
 Alpha virt. eigenvalues --    0.21819   0.23094   0.23596   0.24999   0.26344
 Alpha virt. eigenvalues --    0.26743   0.27111   0.27366   0.27695   0.28954
 Alpha virt. eigenvalues --    0.30724   0.31171   0.31743   0.31823   0.31971

 Mulliken charges:
               1
     1  C   -0.298380
     2  C   -0.299080
     3  C   -0.483669
     4  H    0.149506
     5  H    0.149575
     6  H    0.151481
     7  H    0.151743
     8  H    0.155050
     9  H    0.163855
    10  H    0.159293
    11  C   -0.298285
    12  C   -0.299593
    13  C   -0.475688
    14  H    0.149369
    15  H    0.149709
    16  H    0.151657
    17  H    0.151985
    18  H    0.155239
    19  H    0.155107
    20  H    0.160206
    21  C   -0.298539
    22  C   -0.299409
    23  C   -0.481525
    24  H    0.149883
    25  H    0.149485
    26  H    0.152216
    27  H    0.151561
    28  H    0.154957
    29  H    0.155927
    30  H    0.166180
    31  C   -0.298284
    32  C   -0.299668
    33  C   -0.475717
    34  H    0.149628
    35  H    0.149539
    36  H    0.152031
    37  H    0.151935
    38  H    0.155159
    39  H    0.155229
    40  H    0.160334
 Sum of Mulliken charges =  -0.00000

 Dipole moment (field-independent basis, Debye):
    X=              0.0337    Y=             -0.0109    Z=              0.0090  Tot=              0.0365
 Quadrupole moment (field-independent basis, Debye-Ang):
   XX=            -84.4382   YY=            -85.2967   ZZ=            -85.0590
   XY=             -0.2299   XZ=             -0.1536   YZ=              0.5234

 Normal termination of Gaussian 16 at Wed May  5 23:10:20 2021.
