 Gaussian 16, Revision A.03,
 Gaussian 16:  EM64L-G16RevA.03 25-Dec-2016

 -------------
 #p 6-31g* mp2
 -------------

 ------------------------------------------------------
 Input file generated by CHIRIPA (05-May-2021 14:51:10)
 ------------------------------------------------------
 Symbolic Z-matrix:
 Charge =  0 Multiplicity = 1

                         Standard orientation:
 ---------------------------------------------------------------------
 Center     Atomic      Atomic             Coordinates (Angstroms)
 Number     Number       Type             X           Y           Z
 ---------------------------------------------------------------------
      1          6           0        4.693956   -0.186333   -0.176485
      2          6           0        5.728720    0.915320    0.055053
      3          6           0        7.119518    0.536644   -0.454927
      4          1           0        5.030199   -1.106697    0.320322
      5          1           0        4.642789   -0.411781   -1.250705
      6          1           0        5.776923    1.139589    1.128364
      7          1           0        5.389882    1.833221   -0.442201
      8          1           0        7.093205    0.332716   -1.530251
      9          1           0        7.482445   -0.364856    0.049237
     10          1           0        7.843566    1.338369   -0.279280
     11          6           0        3.298637    0.177394    0.328008
     12          6           0        2.263873   -0.924259    0.096471
     13          6           0        0.873075   -0.545584    0.606451
     14          1           0        3.349804    0.402841    1.402229
     15          1           0        2.962394    1.097758   -0.168798
     16          1           0        2.602711   -1.842160    0.593725
     17          1           0        2.215670   -1.148529   -0.976840
     18          1           0        0.510148    0.355917    0.102287
     19          1           0        0.899388   -0.341656    1.681775
     20          1           0        0.149027   -1.347308    0.430804
     21          6           0       -4.067957   -0.689012   -0.387819
     22          6           0       -3.276140   -1.770082    0.348591
     23          6           0       -3.429558   -3.151933   -0.287603
     24          1           0       -5.129907   -0.969838   -0.406399
     25          1           0       -3.736450   -0.650558   -1.434728
     26          1           0       -3.608073   -1.805539    1.394143
     27          1           0       -2.215980   -1.486556    0.365588
     28          1           0       -3.080077   -3.139353   -1.325055
     29          1           0       -4.480078   -3.460150   -0.290655
     30          1           0       -2.855287   -3.909564    0.254678
     31          6           0       -3.924636    0.697952    0.236296
     32          6           0       -4.716453    1.779021   -0.500115
     33          6           0       -4.563035    3.160872    0.136079
     34          1           0       -4.256143    0.659497    1.283204
     35          1           0       -2.862686    0.978778    0.254875
     36          1           0       -5.776614    1.495495   -0.517112
     37          1           0       -4.384520    1.814479   -1.545667
     38          1           0       -3.512515    3.469090    0.139131
     39          1           0       -4.912516    3.148293    1.173531
     40          1           0       -5.137306    3.918503   -0.406202
 ---------------------------------------------------------------------

 SCF Done:  E(RHF) =  -470.733298102     A.U. after   11 cycles
 E2 =    -0.1582507598D+01 EUMP2 =    -0.47231580569979D+03

 The electronic state is 1-A.
 Alpha  occ. eigenvalues --  -11.21650 -11.21622 -11.21565 -11.21510 -11.21437
 Alpha  occ. eigenvalues --  -11.21376 -11.21349 -11.21290 -11.21132 -11.21087
 Alpha  occ. eigenvalues --  -11.21043 -11.21040  -1.08464  -1.08378  -1.03571
 Alpha  occ. eigenvalues --   -1.03483  -0.96022  -0.95937  -0.87046  -0.86948
 Alpha  occ. eigenvalues --   -0.79661  -0.79522  -0.78279  -0.78183  -0.65096
 Alpha  occ. eigenvalues --   -0.65015  -0.60965  -0.60916  -0.59448  -0.59246
 Alpha  occ. eigenvalues --   -0.57659  -0.57516  -0.55305  -0.55226  -0.52773
 Alpha  occ. eigenvalues --   -0.52617  -0.52450  -0.52349  -0.49959  -0.49874
 Alpha  occ. eigenvalues --   -0.47991  -0.47823  -0.46665  -0.46570  -0.45829
 Alpha  occ. eigenvalues --   -0.45749  -0.45722  -0.45652  -0.43782  -0.43707
 Alpha virt. eigenvalues --    0.21715   0.23006   0.23777   0.24636   0.25792
 Alpha virt. eigenvalues --    0.26649   0.27141   0.27310   0.27901   0.29095
 Alpha virt. eigenvalues --    0.29895   0.31426   0.31666   0.31848   0.32028

 Mulliken charges:
               1
     1  C   -0.298269
     2  C   -0.299648
     3  C   -0.475720
     4  H    0.149751
     5  H    0.149548
     6  H    0.152001
     7  H    0.151950
     8  H    0.155200
     9  H    0.155227
    10  H    0.160330
    11  C   -0.298733
    12  C   -0.299321
    13  C   -0.481425
    14  H    0.149704
    15  H    0.149581
    16  H    0.152275
    17  H    0.151974
    18  H    0.154711
    19  H    0.156140
    20  H    0.165667
    21  C   -0.297419
    22  C   -0.308859
    23  C   -0.475490
    24  H    0.149330
    25  H    0.149086
    26  H    0.151698
    27  H    0.161128
    28  H    0.154790
    29  H    0.155220
    30  H    0.159736
    31  C   -0.299164
    32  C   -0.299629
    33  C   -0.475624
    34  H    0.149436
    35  H    0.150986
    36  H    0.151832
    37  H    0.151681
    38  H    0.155075
    39  H    0.155184
    40  H    0.160059
 Sum of Mulliken charges =  -0.00000

 Dipole moment (field-independent basis, Debye):
    X=              0.0399    Y=              0.0007    Z=              0.0136  Tot=              0.0422
 Quadrupole moment (field-independent basis, Debye-Ang):
   XX=            -85.3042   YY=            -85.8016   ZZ=            -83.7983
   XY=              0.1417   XZ=              0.0372   YZ=             -0.9067

 Normal termination of Gaussian 16 at Thu May  6 00:39:01 2021.
