 Gaussian 16, Revision A.03,
 Gaussian 16:  EM64L-G16RevA.03 25-Dec-2016

 -------------
 #p 6-31g* mp2
 -------------

 ------------------------------------------------------
 Input file generated by CHIRIPA (05-May-2021 14:57:23)
 ------------------------------------------------------
 Symbolic Z-matrix:
 Charge =  0 Multiplicity = 1

                         Standard orientation:
 ---------------------------------------------------------------------
 Center     Atomic      Atomic             Coordinates (Angstroms)
 Number     Number       Type             X           Y           Z
 ---------------------------------------------------------------------
      1          6           0        1.526690   -0.782671    1.295888
      2          6           0        2.414760   -1.784602    0.890937
      3          6           0        3.615713   -1.454645    0.255807
      4          6           0        3.898030   -0.106596    0.040516
      5          6           0        3.033671    0.914533    0.432267
      6          6           0        1.838430    0.561330    1.065666
      7          1           0        0.595979   -1.048018    1.788599
      8          1           0        2.175274   -2.829202    1.068428
      9          1           0        4.321270   -2.210119   -0.068025
     10          1           0        3.299961    1.947082    0.241610
     11          1           0        1.150634    1.341559    1.379072
     12          7           0        5.166401    0.255019   -0.630951
     13          8           0        5.391857    1.450048   -0.809035
     14          8           0        5.911078   -0.663422   -0.966450
     15          6           0       -4.756682   -2.101030   -0.443832
     16          6           0       -3.365979   -1.989942   -0.343206
     17          6           0       -2.763540   -0.738839   -0.180860
     18          6           0       -3.585766    0.385382   -0.122890
     19          6           0       -4.974196    0.307283   -0.220113
     20          6           0       -5.554945   -0.954085   -0.382072
     21          1           0       -5.216246   -3.076904   -0.569796
     22          1           0       -2.743550   -2.878963   -0.390839
     23          1           0       -1.689408   -0.624091   -0.100283
     24          1           0       -5.568451    1.211541   -0.169158
     25          1           0       -6.635245   -1.037344   -0.459940
     26          7           0       -2.959473    1.715302    0.048774
     27          8           0       -3.705986    2.690513    0.096917
     28          8           0       -1.733928    1.757300    0.131932
 ---------------------------------------------------------------------

 SCF Done:  E(RHF) =  -868.339010157     A.U. after   16 cycles
 E2 =    -0.2599495639D+01 EUMP2 =    -0.87093850579575D+03

 The electronic state is 1-A.
 Alpha  occ. eigenvalues --  -20.61654 -20.61595 -20.60509 -20.60493 -15.86675
 Alpha  occ. eigenvalues --  -15.85550 -11.31929 -11.30906 -11.28518 -11.28446
 Alpha  occ. eigenvalues --  -11.28180 -11.27494 -11.27480 -11.27431 -11.27323
 Alpha  occ. eigenvalues --  -11.27214 -11.26591 -11.26281  -1.60691  -1.59578
 Alpha  occ. eigenvalues --   -1.40252  -1.39131  -1.20085  -1.19050  -1.09494
 Alpha  occ. eigenvalues --   -1.08469  -1.05476  -1.04418  -0.96352  -0.95310
 Alpha  occ. eigenvalues --   -0.86876  -0.85823  -0.83194  -0.82117  -0.78261
 Alpha  occ. eigenvalues --   -0.77152  -0.72905  -0.72004  -0.71769  -0.71191
 Alpha  occ. eigenvalues --   -0.70898  -0.70199  -0.65743  -0.65475  -0.64698
 Alpha  occ. eigenvalues --   -0.64383  -0.62829  -0.61734  -0.55965  -0.54991
 Alpha  occ. eigenvalues --   -0.53803  -0.53565  -0.52777  -0.52480  -0.49660
 Alpha  occ. eigenvalues --   -0.49628  -0.48528  -0.48523  -0.45681  -0.44538
 Alpha  occ. eigenvalues --   -0.38046  -0.37091  -0.37065  -0.36000
 Alpha virt. eigenvalues --    0.04260   0.05294   0.10567   0.11605   0.15782
 Alpha virt. eigenvalues --    0.16685   0.20205   0.21946   0.26008   0.27118
 Alpha virt. eigenvalues --    0.27953   0.29117   0.30536   0.31069   0.32405

 Mulliken charges:
               1
     1  C   -0.179371
     2  C   -0.219060
     3  C   -0.172862
     4  C    0.159367
     5  C   -0.172268
     6  C   -0.216580
     7  H    0.220678
     8  H    0.218469
     9  H    0.273684
    10  H    0.278235
    11  H    0.243676
    12  N    0.487906
    13  O   -0.458915
    14  O   -0.462205
    15  C   -0.169963
    16  C   -0.218734
    17  C   -0.175465
    18  C    0.158663
    19  C   -0.169965
    20  C   -0.218263
    21  H    0.227880
    22  H    0.223013
    23  H    0.273277
    24  H    0.277421
    25  H    0.226065
    26  N    0.490689
    27  O   -0.455406
    28  O   -0.469969
 Sum of Mulliken charges =  -0.00000

 Dipole moment (field-independent basis, Debye):
    X=             -6.9588    Y=             -5.7392    Z=              1.7375  Tot=              9.1860
 Quadrupole moment (field-independent basis, Debye-Ang):
   XX=           -119.2541   YY=           -102.9566   ZZ=           -106.1628
   XY=              8.6241   XZ=             11.7175   YZ=              0.6465

 Normal termination of Gaussian 16 at Thu May  6 01:51:57 2021.
