 Gaussian 16, Revision A.03,
 Gaussian 16:  EM64L-G16RevA.03 25-Dec-2016

 -------------
 #p 6-31g* mp2
 -------------

 ------------------------------------------------------
 Input file generated by CHIRIPA (05-May-2021 14:57:26)
 ------------------------------------------------------
 Symbolic Z-matrix:
 Charge =  0 Multiplicity = 1

                         Standard orientation:
 ---------------------------------------------------------------------
 Center     Atomic      Atomic             Coordinates (Angstroms)
 Number     Number       Type             X           Y           Z
 ---------------------------------------------------------------------
      1          6           0       -4.990571    1.893705    0.399157
      2          6           0       -4.359227    1.736627   -0.839089
      3          6           0       -3.470070    0.679315   -1.053657
      4          6           0       -3.234371   -0.206326   -0.003240
      5          6           0       -3.847892   -0.076484    1.241759
      6          6           0       -4.733342    0.988245    1.433805
      7          1           0       -5.679849    2.717931    0.557091
      8          1           0       -4.557091    2.438294   -1.644420
      9          1           0       -2.967627    0.534188   -2.002291
     10          1           0       -3.630592   -0.792012    2.025479
     11          1           0       -5.222218    1.107768    2.396489
     12          7           0       -2.295023   -1.329580   -0.218472
     13          8           0       -2.104307   -2.096261    0.723051
     14          8           0       -1.767264   -1.422037   -1.324618
     15          6           0        5.030427    1.886858    0.405459
     16          6           0        4.996394    0.772082    1.249638
     17          6           0        4.091183   -0.267569    1.016688
     18          6           0        3.230518   -0.159165   -0.074548
     19          6           0        3.240210    0.938606   -0.933673
     20          6           0        4.153772    1.966421   -0.681586
     21          1           0        5.736861    2.689887    0.593853
     22          1           0        5.676035    0.707598    2.094609
     23          1           0        4.043469   -1.141980    1.654298
     24          1           0        2.550267    0.974496   -1.768004
     25          1           0        4.177963    2.830977   -1.338855
     26          7           0        2.267790   -1.253532   -0.331291
     27          8           0        1.520049   -1.134058   -1.299407
     28          8           0        2.279175   -2.210048    0.440449
 ---------------------------------------------------------------------

 SCF Done:  E(RHF) =  -868.334205318     A.U. after   16 cycles
 E2 =    -0.2600990063D+01 EUMP2 =    -0.87093519538069D+03

 The electronic state is 1-A.
 Alpha  occ. eigenvalues --  -20.59704 -20.59657 -20.59647 -20.59552 -15.84753
 Alpha  occ. eigenvalues --  -15.84667 -11.30559 -11.30505 -11.27188 -11.27171
 Alpha  occ. eigenvalues --  -11.27129 -11.27124 -11.27007 -11.26964 -11.26303
 Alpha  occ. eigenvalues --  -11.26283 -11.26255 -11.26244  -1.58755  -1.58663
 Alpha  occ. eigenvalues --   -1.38302  -1.38206  -1.18775  -1.18723  -1.08088
 Alpha  occ. eigenvalues --   -1.08029  -1.04242  -1.04195  -0.94854  -0.94771
 Alpha  occ. eigenvalues --   -0.85620  -0.85570  -0.81691  -0.81600  -0.76657
 Alpha  occ. eigenvalues --   -0.76578  -0.71050  -0.70772  -0.70186  -0.69939
 Alpha  occ. eigenvalues --   -0.69878  -0.69827  -0.64417  -0.64357  -0.64250
 Alpha  occ. eigenvalues --   -0.64201  -0.61585  -0.61536  -0.54732  -0.54683
 Alpha  occ. eigenvalues --   -0.52553  -0.52501  -0.52341  -0.52293  -0.47889
 Alpha  occ. eigenvalues --   -0.47707  -0.47614  -0.47433  -0.43789  -0.43297
 Alpha  occ. eigenvalues --   -0.36787  -0.36728  -0.35869  -0.35823
 Alpha virt. eigenvalues --    0.05805   0.06044   0.11779   0.11824   0.17233
 Alpha virt. eigenvalues --    0.17442   0.21861   0.21910   0.27741   0.27785
 Alpha virt. eigenvalues --    0.28786   0.28855   0.31371   0.31437   0.33042

 Mulliken charges:
               1
     1  C   -0.172528
     2  C   -0.218852
     3  C   -0.172151
     4  C    0.159313
     5  C   -0.172080
     6  C   -0.218643
     7  H    0.222551
     8  H    0.220494
     9  H    0.276031
    10  H    0.275425
    11  H    0.220986
    12  N    0.486060
    13  O   -0.460030
    14  O   -0.446471
    15  C   -0.172348
    16  C   -0.218571
    17  C   -0.171621
    18  C    0.159189
    19  C   -0.172381
    20  C   -0.218617
    21  H    0.222837
    22  H    0.221416
    23  H    0.275934
    24  H    0.274980
    25  H    0.220452
    26  N    0.485883
    27  O   -0.449452
    28  O   -0.457804
 Sum of Mulliken charges =  -0.00000

 Dipole moment (field-independent basis, Debye):
    X=              0.1001    Y=              7.5085    Z=              1.5132  Tot=              7.6601
 Quadrupole moment (field-independent basis, Debye-Ang):
   XX=            -64.2690   YY=           -107.3615   ZZ=            -97.7364
   XY=             -0.9124   XZ=              1.1258   YZ=             -4.4114

 Normal termination of Gaussian 16 at Fri May  7 09:42:52 2021.
