 Gaussian 16, Revision A.03,
 Gaussian 16:  EM64L-G16RevA.03 25-Dec-2016

 -------------
 #p 6-31g* mp2
 -------------

 ------------------------------------------------------
 Input file generated by CHIRIPA (05-May-2021 14:55:20)
 ------------------------------------------------------
 Symbolic Z-matrix:
 Charge =  0 Multiplicity = 1

                         Standard orientation:
 ---------------------------------------------------------------------
 Center     Atomic      Atomic             Coordinates (Angstroms)
 Number     Number       Type             X           Y           Z
 ---------------------------------------------------------------------
      1          6           0        2.258568    2.130794    0.695700
      2          6           0        2.914322    1.697073   -0.461189
      3          6           0        2.978258    0.335745   -0.773033
      4          6           0        2.372819   -0.568509    0.098207
      5          6           0        1.712133   -0.167498    1.258368
      6          6           0        1.660621    1.198768    1.550280
      7          1           0        2.213727    3.190224    0.930206
      8          1           0        3.379592    2.418645   -1.126698
      9          1           0        3.479443   -0.027484   -1.662019
     10          1           0        1.257772   -0.910525    1.902484
     11          1           0        1.150674    1.532724    2.449432
     12          7           0        2.433929   -2.012300   -0.221377
     13          8           0        1.892564   -2.788916    0.562478
     14          8           0        3.022034   -2.339989   -1.249672
     15          6           0       -2.929879    1.178695   -0.253172
     16          6           0       -1.472017    1.593448   -0.454680
     17          6           0       -1.299251    3.108021   -0.573063
     18          1           0       -3.530467    1.553118   -1.093437
     19          1           0       -3.320496    1.665045    0.651415
     20          1           0       -1.083851    1.105367   -1.357852
     21          1           0       -0.874797    1.217829    0.386067
     22          1           0       -1.660301    3.608778    0.331087
     23          1           0       -1.870541    3.495677   -1.422740
     24          1           0       -0.249486    3.382341   -0.716595
     25          6           0       -3.118754   -0.332474   -0.133077
     26          6           0       -4.576615   -0.747227    0.068432
     27          6           0       -4.749382   -2.261800    0.186814
     28          1           0       -2.728136   -0.818824   -1.037663
     29          1           0       -2.518166   -0.706898    0.707189
     30          1           0       -5.173836   -0.371609   -0.772314
     31          1           0       -4.964783   -0.259146    0.971603
     32          1           0       -4.178091   -2.649456    1.036491
     33          1           0       -4.388332   -2.762558   -0.717335
     34          1           0       -5.799147   -2.536120    0.330346
 ---------------------------------------------------------------------

 SCF Done:  E(RHF) =  -669.534359458     A.U. after   15 cycles
 E2 =    -0.2094011462D+01 EUMP2 =    -0.67162837091919D+03

 The electronic state is 1-A.
 Alpha  occ. eigenvalues --  -20.60811 -20.60806 -15.85866 -11.31258 -11.27829
 Alpha  occ. eigenvalues --  -11.27821 -11.27566 -11.26859 -11.26834 -11.21678
 Alpha  occ. eigenvalues --  -11.21590 -11.21505 -11.21472 -11.21394 -11.20949
 Alpha  occ. eigenvalues --   -1.59885  -1.39438  -1.19442  -1.08838  -1.08509
 Alpha  occ. eigenvalues --   -1.04859  -1.03625  -0.96101  -0.95653  -0.87113
 Alpha  occ. eigenvalues --   -0.86246  -0.82494  -0.79691  -0.78315  -0.77532
 Alpha  occ. eigenvalues --   -0.72084  -0.71207  -0.70544  -0.65175  -0.65094
 Alpha  occ. eigenvalues --   -0.64848  -0.62197  -0.61053  -0.59525  -0.57733
 Alpha  occ. eigenvalues --   -0.55409  -0.55338  -0.53227  -0.52942  -0.52706
 Alpha  occ. eigenvalues --   -0.52510  -0.50034  -0.48845  -0.48837  -0.47994
 Alpha  occ. eigenvalues --   -0.46733  -0.45849  -0.45790  -0.44836  -0.43887
 Alpha  occ. eigenvalues --   -0.37370  -0.36345
 Alpha virt. eigenvalues --    0.04972   0.11134   0.16369   0.20846   0.22953
 Alpha virt. eigenvalues --    0.24258   0.26244   0.26965   0.27354   0.27845
 Alpha virt. eigenvalues --    0.28755   0.30412   0.31387   0.31911   0.32131

 Mulliken charges:
               1
     1  C   -0.166640
     2  C   -0.219214
     3  C   -0.170716
     4  C    0.160606
     5  C   -0.169820
     6  C   -0.220567
     7  H    0.226794
     8  H    0.224011
     9  H    0.275928
    10  H    0.275743
    11  H    0.224234
    12  N    0.488023
    13  O   -0.460188
    14  O   -0.460326
    15  C   -0.297930
    16  C   -0.302799
    17  C   -0.476941
    18  H    0.149612
    19  H    0.146446
    20  H    0.153414
    21  H    0.155611
    22  H    0.150889
    23  H    0.157003
    24  H    0.153849
    25  C   -0.297818
    26  C   -0.299768
    27  C   -0.475878
    28  H    0.152780
    29  H    0.147769
    30  H    0.151867
    31  H    0.150207
    32  H    0.156365
    33  H    0.157671
    34  H    0.159786
 Sum of Mulliken charges =  -0.00000

 Dipole moment (field-independent basis, Debye):
    X=             -0.1225    Y=              4.9819    Z=              1.1147  Tot=              5.1065
 Quadrupole moment (field-independent basis, Debye-Ang):
   XX=            -95.1576   YY=           -102.4167   ZZ=            -90.2589
   XY=             12.9831   XZ=              0.4461   YZ=             -0.8690

 Normal termination of Gaussian 16 at Wed May  5 20:32:30 2021.
