 Gaussian 16, Revision A.03,
 Gaussian 16:  EM64L-G16RevA.03 25-Dec-2016

 -------------
 #p 6-31g* mp2
 -------------

 ------------------------------------------------------
 Input file generated by CHIRIPA (05-May-2021 14:57:24)
 ------------------------------------------------------
 Symbolic Z-matrix:
 Charge =  0 Multiplicity = 1

                         Standard orientation:
 ---------------------------------------------------------------------
 Center     Atomic      Atomic             Coordinates (Angstroms)
 Number     Number       Type             X           Y           Z
 ---------------------------------------------------------------------
      1          6           0       -2.010414   -0.807051   -0.032948
      2          6           0       -2.984346   -1.627041    0.546355
      3          6           0       -4.331074   -1.252204    0.527147
      4          6           0       -4.670028   -0.045290   -0.082574
      5          6           0       -3.722909    0.793270   -0.668297
      6          6           0       -2.382148    0.398363   -0.637360
      7          1           0       -0.966561   -1.106028   -0.013471
      8          1           0       -2.698558   -2.563730    1.016445
      9          1           0       -5.105561   -1.867970    0.968079
     10          1           0       -4.038412    1.721227   -1.129568
     11          1           0       -1.627928    1.037174   -1.088045
     12          7           0       -6.092590    0.362156   -0.109117
     13          8           0       -6.365361    1.430329   -0.652477
     14          8           0       -6.907886   -0.394375    0.413941
     15          6           0        2.035283    0.641296    0.648152
     16          6           0        2.371640   -0.613899    0.130591
     17          6           0        3.698339   -0.917913   -0.188774
     18          6           0        4.667624    0.061315    0.023098
     19          6           0        4.364023    1.320997    0.537219
     20          6           0        3.030793    1.603042    0.849460
     21          1           0        1.002135    0.868928    0.893476
     22          1           0        1.600600   -1.362747   -0.026793
     23          1           0        3.986548   -1.881614   -0.590811
     24          1           0        5.154627    2.047003    0.683090
     25          1           0        2.772489    2.578684    1.251264
     26          7           0        6.075597   -0.248903   -0.311229
     27          8           0        6.910971    0.631091   -0.115268
     28          8           0        6.317134   -1.366170   -0.762904
 ---------------------------------------------------------------------

 SCF Done:  E(RHF) =  -868.336312518     A.U. after   16 cycles
 E2 =    -0.2600166881D+01 EUMP2 =    -0.87093647939945D+03

 The electronic state is 1-A.
 Alpha  occ. eigenvalues --  -20.61396 -20.61391 -20.61383 -20.61376 -15.86454
 Alpha  occ. eigenvalues --  -15.86443 -11.32001 -11.31974 -11.28608 -11.28579
 Alpha  occ. eigenvalues --  -11.28554 -11.28535 -11.28505 -11.28424 -11.27769
 Alpha  occ. eigenvalues --  -11.27711 -11.27656 -11.27589  -1.60467  -1.60454
 Alpha  occ. eigenvalues --   -1.40015  -1.40003  -1.20201  -1.20181  -1.09608
 Alpha  occ. eigenvalues --   -1.09554  -1.05617  -1.05614  -0.96416  -0.96342
 Alpha  occ. eigenvalues --   -0.87035  -0.87017  -0.83209  -0.83191  -0.78207
 Alpha  occ. eigenvalues --   -0.78186  -0.72671  -0.72661  -0.71791  -0.71779
 Alpha  occ. eigenvalues --   -0.71543  -0.71192  -0.65873  -0.65846  -0.65724
 Alpha  occ. eigenvalues --   -0.65557  -0.62965  -0.62946  -0.56237  -0.56165
 Alpha  occ. eigenvalues --   -0.53943  -0.53929  -0.53715  -0.53714  -0.49450
 Alpha  occ. eigenvalues --   -0.49427  -0.49413  -0.49401  -0.45379  -0.45371
 Alpha  occ. eigenvalues --   -0.38239  -0.38200  -0.37208  -0.37204
 Alpha virt. eigenvalues --    0.04309   0.04348   0.10378   0.10418   0.15703
 Alpha virt. eigenvalues --    0.15764   0.17262   0.22132   0.24312   0.25591
 Alpha virt. eigenvalues --    0.27505   0.28963   0.29743   0.30907   0.32399

 Mulliken charges:
               1
     1  C   -0.176161
     2  C   -0.219112
     3  C   -0.169691
     4  C    0.159599
     5  C   -0.169598
     6  C   -0.222581
     7  H    0.221097
     8  H    0.225808
     9  H    0.278499
    10  H    0.278096
    11  H    0.223354
    12  N    0.487802
    13  O   -0.458422
    14  O   -0.458000
    15  C   -0.175109
    16  C   -0.222142
    17  C   -0.169328
    18  C    0.159383
    19  C   -0.169558
    20  C   -0.218051
    21  H    0.223135
    22  H    0.217027
    23  H    0.277788
    24  H    0.278545
    25  H    0.226539
    26  N    0.487861
    27  O   -0.457944
    28  O   -0.458832
 Sum of Mulliken charges =  -0.00000

 Dipole moment (field-independent basis, Debye):
    X=              0.0272    Y=             -0.2700    Z=              1.2818  Tot=              1.3102
 Quadrupole moment (field-independent basis, Debye-Ang):
   XX=           -195.8659   YY=            -96.9298   ZZ=           -104.5558
   XY=             14.2224   XZ=              4.3460   YZ=             -0.5842

 Normal termination of Gaussian 16 at Wed May  5 17:55:09 2021.
