 Gaussian 16, Revision A.03,
 Gaussian 16:  EM64L-G16RevA.03 25-Dec-2016

 -------------
 #p 6-31g* mp2
 -------------

 ------------------------------------------------------
 Input file generated by CHIRIPA (05-May-2021 14:55:24)
 ------------------------------------------------------
 Symbolic Z-matrix:
 Charge =  0 Multiplicity = 1

                         Standard orientation:
 ---------------------------------------------------------------------
 Center     Atomic      Atomic             Coordinates (Angstroms)
 Number     Number       Type             X           Y           Z
 ---------------------------------------------------------------------
      1          6           0       -5.303923    1.837863    0.180959
      2          6           0       -4.197309    1.840869    1.036482
      3          6           0       -3.210347    0.857083    0.924157
      4          6           0       -3.362542   -0.119072   -0.059331
      5          6           0       -4.453504   -0.148938   -0.926626
      6          6           0       -5.428269    0.844719   -0.796141
      7          1           0       -6.065881    2.605926    0.275269
      8          1           0       -4.098122    2.610923    1.796234
      9          1           0       -2.343422    0.835700    1.573313
     10          1           0       -4.524793   -0.929566   -1.674259
     11          1           0       -6.286608    0.839899   -1.461931
     12          7           0       -2.324146   -1.165787   -0.187857
     13          8           0       -2.481520   -2.014805   -1.062522
     14          8           0       -1.372538   -1.117366    0.588504
     15          6           0        4.775944    0.585102   -0.255209
     16          6           0        6.280343    0.793928   -0.078689
     17          6           0        6.771084    2.105646   -0.692176
     18          1           0        4.532755    0.604151   -1.326396
     19          1           0        4.239651    1.428102    0.202106
     20          1           0        6.813591   -0.049905   -0.534988
     21          1           0        6.520006    0.774189    0.992193
     22          1           0        6.265398    2.959845   -0.230410
     23          1           0        6.560650    2.131069   -1.766268
     24          1           0        7.849172    2.234647   -0.554536
     25          6           0        4.270283   -0.721909    0.352869
     26          6           0        2.765884   -0.930734    0.176350
     27          6           0        2.275143   -2.242452    0.789837
     28          1           0        4.806575   -1.564908   -0.104446
     29          1           0        4.513472   -0.740958    1.424056
     30          1           0        2.526221   -0.910994   -0.894532
     31          1           0        2.232636   -0.086901    0.632649
     32          1           0        2.485576   -2.267875    1.863928
     33          1           0        2.780829   -3.096650    0.328071
     34          1           0        1.197055   -2.371453    0.652196
 ---------------------------------------------------------------------

 SCF Done:  E(RHF) =  -669.536388475     A.U. after   15 cycles
 E2 =    -0.2090885316D+01 EUMP2 =    -0.67162727379100D+03

 The electronic state is 1-A.
 Alpha  occ. eigenvalues --  -20.61006 -20.60984 -15.86019 -11.31320 -11.27879
 Alpha  occ. eigenvalues --  -11.27876 -11.27613 -11.26882 -11.26872 -11.21073
 Alpha  occ. eigenvalues --  -11.20705 -11.20662 -11.20464 -11.20338 -11.19375
 Alpha  occ. eigenvalues --   -1.60051  -1.39608  -1.19485  -1.08894  -1.07597
 Alpha  occ. eigenvalues --   -1.04878  -1.02588  -0.95741  -0.95025  -0.86280
 Alpha  occ. eigenvalues --   -0.86051  -0.82573  -0.78708  -0.77628  -0.77361
 Alpha  occ. eigenvalues --   -0.72245  -0.71360  -0.70594  -0.65141  -0.64881
 Alpha  occ. eigenvalues --   -0.64245  -0.62225  -0.60007  -0.58450  -0.56587
 Alpha  occ. eigenvalues --   -0.55382  -0.54352  -0.53210  -0.52970  -0.51676
 Alpha  occ. eigenvalues --   -0.51465  -0.49029  -0.48995  -0.48956  -0.46972
 Alpha  occ. eigenvalues --   -0.45784  -0.45028  -0.44900  -0.44817  -0.42809
 Alpha  occ. eigenvalues --   -0.37463  -0.36477
 Alpha virt. eigenvalues --    0.04901   0.11178   0.16403   0.21307   0.23609
 Alpha virt. eigenvalues --    0.25314   0.27225   0.27412   0.28108   0.28338
 Alpha virt. eigenvalues --    0.29042   0.30878   0.32220   0.32380   0.32557

 Mulliken charges:
               1
     1  C   -0.170506
     2  C   -0.218546
     3  C   -0.170725
     4  C    0.157718
     5  C   -0.170481
     6  C   -0.218608
     7  H    0.226093
     8  H    0.223919
     9  H    0.275875
    10  H    0.275928
    11  H    0.223905
    12  N    0.490364
    13  O   -0.458831
    14  O   -0.461157
    15  C   -0.297119
    16  C   -0.298861
    17  C   -0.475118
    18  H    0.148693
    19  H    0.146916
    20  H    0.151484
    21  H    0.150762
    22  H    0.153621
    23  H    0.154520
    24  H    0.158534
    25  C   -0.297426
    26  C   -0.296017
    27  C   -0.487156
    28  H    0.147751
    29  H    0.146839
    30  H    0.150903
    31  H    0.150203
    32  H    0.146939
    33  H    0.147651
    34  H    0.191931
 Sum of Mulliken charges =  -0.00000

 Dipole moment (field-independent basis, Debye):
    X=             -4.0635    Y=              3.6478    Z=              0.4281  Tot=              5.4774
 Quadrupole moment (field-independent basis, Debye-Ang):
   XX=            -70.8398   YY=            -96.0930   ZZ=            -91.7878
   XY=            -11.6019   XZ=              0.9058   YZ=              2.5013

 Normal termination of Gaussian 16 at Thu May  6 20:54:30 2021.
