 Gaussian 16, Revision A.03,
 Gaussian 16:  EM64L-G16RevA.03 25-Dec-2016

 -------------
 #p 6-31g* mp2
 -------------

 ------------------------------------------------------
 Input file generated by CHIRIPA (05-May-2021 14:53:16)
 ------------------------------------------------------
 Symbolic Z-matrix:
 Charge =  0 Multiplicity = 1

                         Standard orientation:
 ---------------------------------------------------------------------
 Center     Atomic      Atomic             Coordinates (Angstroms)
 Number     Number       Type             X           Y           Z
 ---------------------------------------------------------------------
      1          6           0        2.471512    0.952297   -0.073601
      2          6           0        2.279440    2.233718    0.738220
      3          6           0        0.861043    2.794465    0.630946
      4          1           0        2.234221    1.154199   -1.127106
      5          1           0        1.750818    0.197356    0.269996
      6          1           0        3.001211    2.985561    0.394134
      7          1           0        2.517400    2.028790    1.789884
      8          1           0        0.129822    2.064560    0.993100
      9          1           0        0.616381    3.026767   -0.410581
     10          1           0        0.745911    3.710391    1.218894
     11          6           0        3.884424    0.379620    0.023595
     12          6           0        4.076496   -0.901801   -0.788227
     13          6           0        5.494893   -1.462548   -0.680952
     14          1           0        4.605118    1.134561   -0.320002
     15          1           0        4.121715    0.177718    1.077100
     16          1           0        3.838536   -0.696873   -1.839890
     17          1           0        3.354726   -1.653644   -0.444140
     18          1           0        5.739555   -1.694850    0.360574
     19          1           0        6.226114   -0.732643   -1.043106
     20          1           0        5.610025   -2.378474   -1.268900
     21          6           0       -0.624142   -1.660805    1.288613
     22          6           0       -0.492073   -1.423913   -0.083598
     23          6           0       -1.515502   -0.792754   -0.796883
     24          6           0       -2.662474   -0.410018   -0.103157
     25          6           0       -2.823798   -0.632108    1.263570
     26          6           0       -1.787532   -1.264844    1.956639
     27          1           0        0.175869   -2.151716    1.834859
     28          1           0        0.410308   -1.730333   -0.605000
     29          1           0       -1.439500   -0.597069   -1.859592
     30          1           0       -3.735170   -0.315184    1.755889
     31          1           0       -1.892849   -1.447529    3.022275
     32          7           0       -3.752728    0.258996   -0.847579
     33          8           0       -4.753222    0.586503   -0.213237
     34          8           0       -3.586132    0.443196   -2.051304
 ---------------------------------------------------------------------

 SCF Done:  E(RHF) =  -669.534797666     A.U. after   15 cycles
 E2 =    -0.2093579838D+01 EUMP2 =    -0.67162837750350D+03

 The electronic state is 1-A.
 Alpha  occ. eigenvalues --  -20.60788 -20.60783 -15.85841 -11.31242 -11.27799
 Alpha  occ. eigenvalues --  -11.27778 -11.27554 -11.26841 -11.26795 -11.22431
 Alpha  occ. eigenvalues --  -11.21993 -11.21954 -11.21825 -11.21725 -11.21224
 Alpha  occ. eigenvalues --   -1.59861  -1.39414  -1.19416  -1.09010  -1.08800
 Alpha  occ. eigenvalues --   -1.04819  -1.04038  -0.96459  -0.95634  -0.87477
 Alpha  occ. eigenvalues --   -0.86221  -0.82462  -0.80134  -0.78838  -0.77490
 Alpha  occ. eigenvalues --   -0.72060  -0.71183  -0.70517  -0.65701  -0.65060
 Alpha  occ. eigenvalues --   -0.64782  -0.62159  -0.61446  -0.59849  -0.58077
 Alpha  occ. eigenvalues --   -0.55741  -0.55320  -0.53237  -0.53130  -0.52956
 Alpha  occ. eigenvalues --   -0.52817  -0.50410  -0.48824  -0.48812  -0.48426
 Alpha  occ. eigenvalues --   -0.47184  -0.46324  -0.46257  -0.44812  -0.44294
 Alpha  occ. eigenvalues --   -0.37359  -0.36348
 Alpha virt. eigenvalues --    0.05017   0.11121   0.16488   0.19811   0.22779
 Alpha virt. eigenvalues --    0.23675   0.25147   0.26157   0.27380   0.28162
 Alpha virt. eigenvalues --    0.29478   0.30151   0.31146   0.31415   0.31844

 Mulliken charges:
               1
     1  C   -0.305523
     2  C   -0.298880
     3  C   -0.478241
     4  H    0.148920
     5  H    0.151102
     6  H    0.153221
     7  H    0.149997
     8  H    0.157948
     9  H    0.157419
    10  H    0.161386
    11  C   -0.297797
    12  C   -0.300240
    13  C   -0.475638
    14  H    0.152780
    15  H    0.148667
    16  H    0.153638
    17  H    0.141297
    18  H    0.155496
    19  H    0.158605
    20  H    0.161175
    21  C   -0.172744
    22  C   -0.218895
    23  C   -0.171694
    24  C    0.159014
    25  C   -0.171460
    26  C   -0.218378
    27  H    0.225632
    28  H    0.229442
    29  H    0.276192
    30  H    0.275929
    31  H    0.223792
    32  N    0.488125
    33  O   -0.460207
    34  O   -0.460077
 Sum of Mulliken charges =  -0.00000

 Dipole moment (field-independent basis, Debye):
    X=              3.8396    Y=             -2.3038    Z=              2.5986  Tot=              5.1771
 Quadrupole moment (field-independent basis, Debye-Ang):
   XX=           -114.8599   YY=            -93.5010   ZZ=            -91.2503
   XY=              5.2733   XZ=            -10.3501   YZ=             -1.0548

 Normal termination of Gaussian 16 at Thu May  6 18:52:40 2021.
