 Gaussian 16, Revision A.03,
 Gaussian 16:  EM64L-G16RevA.03 25-Dec-2016

 -------------
 #p 6-31g* mp2
 -------------

 ------------------------------------------------------
 Input file generated by CHIRIPA (05-May-2021 14:53:11)
 ------------------------------------------------------
 Symbolic Z-matrix:
 Charge =  0 Multiplicity = 1

                         Standard orientation:
 ---------------------------------------------------------------------
 Center     Atomic      Atomic             Coordinates (Angstroms)
 Number     Number       Type             X           Y           Z
 ---------------------------------------------------------------------
      1          6           0       -3.682152    0.001910    0.056984
      2          6           0       -2.672304   -0.636808    1.011045
      3          6           0       -1.230131   -0.234142    0.701540
      4          1           0       -3.433642   -0.283254   -0.974456
      5          1           0       -3.586145    1.095201    0.110775
      6          1           0       -2.771136   -1.728537    0.956495
      7          1           0       -2.923360   -0.350246    2.040350
      8          1           0       -1.109017    0.851452    0.775140
      9          1           0       -0.955928   -0.534670   -0.314874
     10          1           0       -0.524927   -0.702008    1.395549
     11          6           0       -5.128274   -0.391091    0.353644
     12          6           0       -6.138122    0.247627   -0.600416
     13          6           0       -7.580295   -0.155039   -0.290912
     14          1           0       -5.224281   -1.484382    0.299853
     15          1           0       -5.376784   -0.105927    1.385084
     16          1           0       -5.887066   -0.038935   -1.629721
     17          1           0       -6.039290    1.339356   -0.545866
     18          1           0       -7.854498    0.145489    0.725502
     19          1           0       -7.701409   -1.240633   -0.364511
     20          1           0       -8.285499    0.312827   -0.984920
     21          6           0        2.260372    2.380544   -0.226618
     22          6           0        1.688557    1.266422   -0.849739
     23          6           0        2.334129    0.026718   -0.819406
     24          6           0        3.555767   -0.063421   -0.154000
     25          6           0        4.151009    1.028233    0.476291
     26          6           0        3.487608    2.258110    0.433246
     27          1           0        1.751951    3.339759   -0.255119
     28          1           0        0.735569    1.358561   -1.362935
     29          1           0        1.913974   -0.852009   -1.293459
     30          1           0        5.102055    0.905350    0.980105
     31          1           0        3.934049    3.121653    0.918045
     32          7           0        4.248642   -1.370638   -0.115158
     33          8           0        5.324010   -1.423850    0.477622
     34          8           0        3.703229   -2.317270   -0.678231
 ---------------------------------------------------------------------

 SCF Done:  E(RHF) =  -669.535223490     A.U. after   15 cycles
 E2 =    -0.2091709710D+01 EUMP2 =    -0.67162693319937D+03

 The electronic state is 1-A.
 Alpha  occ. eigenvalues --  -20.60725 -20.60720 -15.85777 -11.31129 -11.27687
 Alpha  occ. eigenvalues --  -11.27677 -11.27426 -11.26717 -11.26675 -11.22016
 Alpha  occ. eigenvalues --  -11.21925 -11.21848 -11.21717 -11.21663 -11.21329
 Alpha  occ. eigenvalues --   -1.59800  -1.39354  -1.19298  -1.08832  -1.08696
 Alpha  occ. eigenvalues --   -1.04702  -1.03926  -0.96395  -0.95534  -0.87421
 Alpha  occ. eigenvalues --   -0.86093  -0.82369  -0.80001  -0.78647  -0.77407
 Alpha  occ. eigenvalues --   -0.71996  -0.71123  -0.70409  -0.65460  -0.64951
 Alpha  occ. eigenvalues --   -0.64706  -0.62064  -0.61321  -0.59747  -0.57997
 Alpha  occ. eigenvalues --   -0.55695  -0.55205  -0.53318  -0.52987  -0.52821
 Alpha  occ. eigenvalues --   -0.52578  -0.50349  -0.48756  -0.48751  -0.48305
 Alpha  occ. eigenvalues --   -0.47029  -0.46188  -0.46105  -0.44763  -0.44176
 Alpha  occ. eigenvalues --   -0.37275  -0.36245
 Alpha virt. eigenvalues --    0.05102   0.11329   0.16560   0.20634   0.22588
 Alpha virt. eigenvalues --    0.23918   0.25737   0.26354   0.27258   0.28029
 Alpha virt. eigenvalues --    0.28982   0.30806   0.31085   0.31559   0.32126

 Mulliken charges:
               1
     1  C   -0.298409
     2  C   -0.301346
     3  C   -0.473662
     4  H    0.148092
     5  H    0.146738
     6  H    0.155444
     7  H    0.153668
     8  H    0.150504
     9  H    0.146592
    10  H    0.167263
    11  C   -0.298472
    12  C   -0.299805
    13  C   -0.475931
    14  H    0.151414
    15  H    0.150524
    16  H    0.151910
    17  H    0.150993
    18  H    0.155619
    19  H    0.156249
    20  H    0.160789
    21  C   -0.173141
    22  C   -0.212747
    23  C   -0.170361
    24  C    0.157713
    25  C   -0.171495
    26  C   -0.218359
    27  H    0.225045
    28  H    0.224964
    29  H    0.275043
    30  H    0.275249
    31  H    0.223056
    32  N    0.488120
    33  O   -0.460650
    34  O   -0.460614
 Sum of Mulliken charges =  -0.00000

 Dipole moment (field-independent basis, Debye):
    X=             -2.5310    Y=              4.5727    Z=             -0.0811  Tot=              5.2270
 Quadrupole moment (field-independent basis, Debye-Ang):
   XX=           -110.7290   YY=            -94.4539   ZZ=            -93.5162
   XY=             18.2762   XZ=              2.1190   YZ=              1.0329

 Normal termination of Gaussian 16 at Wed May  5 18:27:58 2021.
