 Gaussian 16, Revision A.03,
 Gaussian 16:  EM64L-G16RevA.03 25-Dec-2016

 -------------
 #p 6-31g* mp2
 -------------

 ------------------------------------------------------
 Input file generated by CHIRIPA (05-May-2021 14:55:20)
 ------------------------------------------------------
 Symbolic Z-matrix:
 Charge =  0 Multiplicity = 1

                         Standard orientation:
 ---------------------------------------------------------------------
 Center     Atomic      Atomic             Coordinates (Angstroms)
 Number     Number       Type             X           Y           Z
 ---------------------------------------------------------------------
      1          6           0        5.188290    0.186088    0.134693
      2          6           0        4.423202    0.136949    1.304627
      3          6           0        3.064663   -0.188758    1.251397
      4          6           0        2.501065   -0.460814    0.005752
      5          6           0        3.236892   -0.420057   -1.177544
      6          6           0        4.593742   -0.092081   -1.100481
      7          1           0        6.242980    0.439986    0.185300
      8          1           0        4.882276    0.352508    2.265268
      9          1           0        2.449019   -0.234037    2.141538
     10          1           0        2.751230   -0.639898   -2.120528
     11          1           0        5.185473   -0.054677   -2.010701
     12          7           0        1.063734   -0.806826   -0.063216
     13          8           0        0.590873   -1.042320   -1.172983
     14          8           0        0.437232   -0.835985    0.993800
     15          6           0       -3.633346   -0.212914   -0.207114
     16          6           0       -4.918425   -0.775272    0.401416
     17          6           0       -5.162254   -2.236180    0.021823
     18          1           0       -3.681764   -0.305921   -1.300710
     19          1           0       -2.781961   -0.825052    0.121254
     20          1           0       -5.766967   -0.161425    0.073110
     21          1           0       -4.867024   -0.680739    1.493679
     22          1           0       -4.334835   -2.866310    0.363753
     23          1           0       -5.239892   -2.344046   -1.064886
     24          1           0       -6.086083   -2.617968    0.467509
     25          6           0       -3.375817    1.246609    0.163292
     26          6           0       -2.090738    1.808967   -0.445238
     27          6           0       -1.846910    3.269876   -0.065646
     28          1           0       -4.227202    1.858747   -0.165077
     29          1           0       -3.327399    1.339617    1.256887
     30          1           0       -2.142140    1.714434   -1.537501
     31          1           0       -1.242196    1.195122   -0.116933
     32          1           0       -1.769271    3.377741    1.021064
     33          1           0       -2.674328    3.900006   -0.407576
     34          1           0       -0.923080    3.651663   -0.511332
 ---------------------------------------------------------------------

 SCF Done:  E(RHF) =  -669.536678227     A.U. after   15 cycles
 E2 =    -0.2092125515D+01 EUMP2 =    -0.67162880374222D+03

 The electronic state is 1-A.
 Alpha  occ. eigenvalues --  -20.61102 -20.61097 -15.86089 -11.31372 -11.27927
 Alpha  occ. eigenvalues --  -11.27921 -11.27655 -11.26919 -11.26909 -11.20381
 Alpha  occ. eigenvalues --  -11.20204 -11.20129 -11.20053 -11.19973 -11.19759
 Alpha  occ. eigenvalues --   -1.60140  -1.39695  -1.19532  -1.08946  -1.07064
 Alpha  occ. eigenvalues --   -1.04919  -1.02321  -0.95795  -0.94790  -0.86322
 Alpha  occ. eigenvalues --   -0.85813  -0.82632  -0.78364  -0.77694  -0.76839
 Alpha  occ. eigenvalues --   -0.72305  -0.71457  -0.70641  -0.65187  -0.64923
 Alpha  occ. eigenvalues --   -0.63682  -0.62266  -0.59720  -0.58170  -0.56399
 Alpha  occ. eigenvalues --   -0.55427  -0.54080  -0.53255  -0.53010  -0.51546
 Alpha  occ. eigenvalues --   -0.51217  -0.49132  -0.49072  -0.48724  -0.46684
 Alpha  occ. eigenvalues --   -0.45421  -0.45069  -0.44415  -0.44172  -0.42527
 Alpha  occ. eigenvalues --   -0.37505  -0.36516
 Alpha virt. eigenvalues --    0.04790   0.11140   0.16296   0.21273   0.24234
 Alpha virt. eigenvalues --    0.25405   0.27204   0.27925   0.28194   0.28876
 Alpha virt. eigenvalues --    0.29247   0.30888   0.32385   0.32511   0.32790

 Mulliken charges:
               1
     1  C   -0.170294
     2  C   -0.218611
     3  C   -0.170569
     4  C    0.159520
     5  C   -0.170619
     6  C   -0.218660
     7  H    0.226337
     8  H    0.224133
     9  H    0.275891
    10  H    0.276170
    11  H    0.224148
    12  N    0.486646
    13  O   -0.456726
    14  O   -0.460593
    15  C   -0.304135
    16  C   -0.298719
    17  C   -0.474984
    18  H    0.146774
    19  H    0.172537
    20  H    0.146460
    21  H    0.149522
    22  H    0.158262
    23  H    0.153443
    24  H    0.154942
    25  C   -0.295893
    26  C   -0.304783
    27  C   -0.475101
    28  H    0.142453
    29  H    0.147259
    30  H    0.149834
    31  H    0.167848
    32  H    0.152452
    33  H    0.151493
    34  H    0.153562
 Sum of Mulliken charges =  -0.00000

 Dipole moment (field-independent basis, Debye):
    X=              5.4635    Y=              0.9979    Z=              0.2366  Tot=              5.5589
 Quadrupole moment (field-independent basis, Debye-Ang):
   XX=            -71.0952   YY=            -98.5973   ZZ=            -89.1745
   XY=              0.6021   XZ=              0.6139   YZ=              0.0787

 Normal termination of Gaussian 16 at Thu May  6 07:41:34 2021.
