 Gaussian 16, Revision A.03,
 Gaussian 16:  EM64L-G16RevA.03 25-Dec-2016

 -------------
 #p 6-31g* mp2
 -------------

 ------------------------------------------------------
 Input file generated by CHIRIPA (05-May-2021 14:53:14)
 ------------------------------------------------------
 Symbolic Z-matrix:
 Charge =  0 Multiplicity = 1

                         Standard orientation:
 ---------------------------------------------------------------------
 Center     Atomic      Atomic             Coordinates (Angstroms)
 Number     Number       Type             X           Y           Z
 ---------------------------------------------------------------------
      1          6           0       -3.243951    0.927199   -0.576039
      2          6           0       -2.153590    1.780002    0.073441
      3          6           0       -1.803043    3.019300   -0.750605
      4          1           0       -2.913262    0.621489   -1.578103
      5          1           0       -4.144175    1.541132   -0.717736
      6          1           0       -1.256148    1.164262    0.215135
      7          1           0       -2.486834    2.083558    1.074150
      8          1           0       -2.683417    3.656904   -0.881001
      9          1           0       -1.445739    2.732384   -1.744896
     10          1           0       -1.021579    3.614480   -0.267972
     11          6           0       -3.605340   -0.315318    0.235920
     12          6           0       -4.695701   -1.168122   -0.413560
     13          6           0       -5.046249   -2.407419    0.410486
     14          1           0       -2.705117   -0.929252    0.377616
     15          1           0       -3.936029   -0.009608    1.237983
     16          1           0       -4.362458   -1.471678   -1.414269
     17          1           0       -5.593143   -0.552381   -0.555254
     18          1           0       -5.403553   -2.120504    1.404777
     19          1           0       -4.165874   -3.045024    0.540881
     20          1           0       -5.827712   -3.002600   -0.072147
     21          6           0        2.240409    2.188229    0.666802
     22          6           0        3.335271    1.831533   -0.127279
     23          6           0        3.586004    0.489771   -0.429529
     24          6           0        2.717568   -0.473672    0.081240
     25          6           0        1.618398   -0.149938    0.875161
     26          6           0        1.386971    1.198101    1.164611
     27          1           0        2.053131    3.232980    0.896627
     28          1           0        3.999739    2.598348   -0.515250
     29          1           0        4.426259    0.185701   -1.041846
     30          1           0        0.973699   -0.936796    1.247496
     31          1           0        0.535916    1.472189    1.781560
     32          7           0        2.972789   -1.897458   -0.231964
     33          8           0        2.192774   -2.727293    0.230193
     34          8           0        3.948014   -2.156628   -0.933680
 ---------------------------------------------------------------------

 SCF Done:  E(RHF) =  -669.534827415     A.U. after   15 cycles
 E2 =    -0.2092777703D+01 EUMP2 =    -0.67162760511760D+03

 The electronic state is 1-A.
 Alpha  occ. eigenvalues --  -20.60808 -20.60802 -15.85861 -11.31238 -11.27792
 Alpha  occ. eigenvalues --  -11.27788 -11.27526 -11.26817 -11.26773 -11.22186
 Alpha  occ. eigenvalues --  -11.21798 -11.21775 -11.21737 -11.21690 -11.21145
 Alpha  occ. eigenvalues --   -1.59883  -1.39436  -1.19408  -1.08840  -1.08774
 Alpha  occ. eigenvalues --   -1.04819  -1.03910  -0.96352  -0.95630  -0.87370
 Alpha  occ. eigenvalues --   -0.86206  -0.82475  -0.80020  -0.78635  -0.77498
 Alpha  occ. eigenvalues --   -0.72078  -0.71206  -0.70505  -0.65471  -0.65053
 Alpha  occ. eigenvalues --   -0.64806  -0.62194  -0.61279  -0.59753  -0.57972
 Alpha  occ. eigenvalues --   -0.55621  -0.55303  -0.53183  -0.53019  -0.52916
 Alpha  occ. eigenvalues --   -0.52763  -0.50275  -0.48843  -0.48833  -0.48298
 Alpha  occ. eigenvalues --   -0.47023  -0.46157  -0.46062  -0.44838  -0.44166
 Alpha  occ. eigenvalues --   -0.37369  -0.36346
 Alpha virt. eigenvalues --    0.04987   0.11185   0.16374   0.20398   0.22725
 Alpha virt. eigenvalues --    0.23988   0.25570   0.26222   0.26677   0.28623
 Alpha virt. eigenvalues --    0.29034   0.30131   0.31096   0.31568   0.32284

 Mulliken charges:
               1
     1  C   -0.297606
     2  C   -0.308326
     3  C   -0.473111
     4  H    0.152937
     5  H    0.150466
     6  H    0.154082
     7  H    0.147573
     8  H    0.157737
     9  H    0.159486
    10  H    0.150563
    11  C   -0.299066
    12  C   -0.299982
    13  C   -0.476607
    14  H    0.149132
    15  H    0.148264
    16  H    0.154308
    17  H    0.151868
    18  H    0.154265
    19  H    0.158183
    20  H    0.161601
    21  C   -0.172635
    22  C   -0.218451
    23  C   -0.171145
    24  C    0.158867
    25  C   -0.173034
    26  C   -0.216873
    27  H    0.225949
    28  H    0.223761
    29  H    0.275731
    30  H    0.275886
    31  H    0.228803
    32  N    0.488055
    33  O   -0.460490
    34  O   -0.460194
 Sum of Mulliken charges =  -0.00000

 Dipole moment (field-independent basis, Debye):
    X=             -0.9265    Y=              4.9623    Z=              1.0329  Tot=              5.1526
 Quadrupole moment (field-independent basis, Debye-Ang):
   XX=            -95.9879   YY=           -100.4550   ZZ=            -93.6957
   XY=             14.9489   XZ=              0.4961   YZ=             -0.2581

 Normal termination of Gaussian 16 at Thu May  6 17:07:38 2021.
