 Gaussian 16, Revision A.03,
 Gaussian 16:  EM64L-G16RevA.03 25-Dec-2016

 -------------
 #p 6-31g* mp2
 -------------

 ------------------------------------------------------
 Input file generated by CHIRIPA (05-May-2021 14:55:21)
 ------------------------------------------------------
 Symbolic Z-matrix:
 Charge =  0 Multiplicity = 1

                         Standard orientation:
 ---------------------------------------------------------------------
 Center     Atomic      Atomic             Coordinates (Angstroms)
 Number     Number       Type             X           Y           Z
 ---------------------------------------------------------------------
      1          6           0        0.476567    0.441658    1.809731
      2          6           0        0.776216   -0.902655    1.565694
      3          6           0        1.833698   -1.252311    0.720698
      4          6           0        2.574126   -0.227356    0.133738
      5          6           0        2.300266    1.121106    0.357215
      6          6           0        1.238206    1.447475    1.205778
      7          1           0       -0.346690    0.704235    2.467530
      8          1           0        0.186420   -1.685897    2.033366
      9          1           0        2.087460   -2.285013    0.514423
     10          1           0        2.906148    1.879626   -0.123382
     11          1           0        1.007778    2.492327    1.393481
     12          7           0        3.696059   -0.585195   -0.762709
     13          8           0        4.333228    0.336582   -1.267665
     14          8           0        3.917018   -1.780670   -0.943413
     15          6           0       -2.588531    0.762667   -0.108350
     16          6           0       -2.723860    2.078511   -0.875308
     17          6           0       -1.777784    3.163319   -0.359627
     18          1           0       -2.783613    0.945028    0.957311
     19          1           0       -1.550469    0.409581   -0.180131
     20          1           0       -3.761682    2.428300   -0.803259
     21          1           0       -2.528622    1.892962   -1.939295
     22          1           0       -0.735763    2.838998   -0.446865
     23          1           0       -1.975829    3.377378    0.695625
     24          1           0       -1.891206    4.095398   -0.921965
     25          6           0       -3.527869   -0.331616   -0.612249
     26          6           0       -3.392538   -1.647460    0.154709
     27          6           0       -4.338615   -2.732268   -0.360971
     28          1           0       -4.565930    0.021470   -0.540467
     29          1           0       -3.332787   -0.513976   -1.677910
     30          1           0       -3.587777   -1.461911    1.218697
     31          1           0       -2.354717   -1.997249    0.082661
     32          1           0       -4.140570   -2.946327   -1.416223
     33          1           0       -5.380636   -2.407947   -0.273733
     34          1           0       -4.225192   -3.664347    0.201366
 ---------------------------------------------------------------------

 SCF Done:  E(RHF) =  -669.534023642     A.U. after   15 cycles
 E2 =    -0.2094592125D+01 EUMP2 =    -0.67162861576776D+03

 The electronic state is 1-A.
 Alpha  occ. eigenvalues --  -20.60795 -20.60789 -15.85851 -11.31219 -11.27822
 Alpha  occ. eigenvalues --  -11.27814 -11.27506 -11.26787 -11.26750 -11.22252
 Alpha  occ. eigenvalues --  -11.22176 -11.21941 -11.21881 -11.21774 -11.21573
 Alpha  occ. eigenvalues --   -1.59872  -1.39425  -1.19418  -1.09051  -1.08771
 Alpha  occ. eigenvalues --   -1.04823  -1.04135  -0.96587  -0.95629  -0.87616
 Alpha  occ. eigenvalues --   -0.86201  -0.82459  -0.80220  -0.78878  -0.77502
 Alpha  occ. eigenvalues --   -0.72068  -0.71198  -0.70497  -0.65658  -0.65054
 Alpha  occ. eigenvalues --   -0.64808  -0.62185  -0.61524  -0.59951  -0.58215
 Alpha  occ. eigenvalues --   -0.55875  -0.55299  -0.53360  -0.53169  -0.53119
 Alpha  occ. eigenvalues --   -0.52778  -0.50529  -0.48825  -0.48823  -0.48518
 Alpha  occ. eigenvalues --   -0.47237  -0.46404  -0.46267  -0.44830  -0.44371
 Alpha  occ. eigenvalues --   -0.37221  -0.36405
 Alpha virt. eigenvalues --    0.05010   0.11077   0.16369   0.20344   0.22685
 Alpha virt. eigenvalues --    0.23503   0.25199   0.26057   0.26978   0.28258
 Alpha virt. eigenvalues --    0.29160   0.30292   0.31013   0.31459   0.31533

 Mulliken charges:
               1
     1  C   -0.168543
     2  C   -0.219918
     3  C   -0.171317
     4  C    0.158123
     5  C   -0.172839
     6  C   -0.218543
     7  H    0.228074
     8  H    0.225098
     9  H    0.275857
    10  H    0.276058
    11  H    0.226938
    12  N    0.488164
    13  O   -0.460398
    14  O   -0.460513
    15  C   -0.306550
    16  C   -0.298213
    17  C   -0.481902
    18  H    0.138978
    19  H    0.162678
    20  H    0.152863
    21  H    0.155873
    22  H    0.157603
    23  H    0.147709
    24  H    0.163651
    25  C   -0.297506
    26  C   -0.301296
    27  C   -0.475770
    28  H    0.150330
    29  H    0.153065
    30  H    0.147153
    31  H    0.150242
    32  H    0.158100
    33  H    0.156666
    34  H    0.160082
 Sum of Mulliken charges =  -0.00000

 Dipole moment (field-independent basis, Debye):
    X=             -3.9576    Y=              1.2271    Z=              3.0825  Tot=              5.1643
 Quadrupole moment (field-independent basis, Debye-Ang):
   XX=           -115.6782   YY=            -91.4652   ZZ=            -94.0378
   XY=              4.6560   XZ=              7.2298   YZ=             -1.4427

 Normal termination of Gaussian 16 at Thu May  6 06:13:09 2021.
