 Gaussian 16, Revision A.03,
 Gaussian 16:  EM64L-G16RevA.03 25-Dec-2016

 -------------
 #p 6-31g* mp2
 -------------

 ------------------------------------------------------
 Input file generated by CHIRIPA (05-May-2021 14:53:13)
 ------------------------------------------------------
 Symbolic Z-matrix:
 Charge =  0 Multiplicity = 1

                         Standard orientation:
 ---------------------------------------------------------------------
 Center     Atomic      Atomic             Coordinates (Angstroms)
 Number     Number       Type             X           Y           Z
 ---------------------------------------------------------------------
      1          6           0        3.719204    0.835154   -0.078027
      2          6           0        2.807584    1.541639    0.925873
      3          6           0        2.532377    2.998254    0.551272
      4          1           0        4.669018    1.382582   -0.149588
      5          1           0        3.258115    0.877622   -1.074515
      6          1           0        3.269600    1.496643    1.920424
      7          1           0        1.859903    0.992357    0.995195
      8          1           0        2.049222    3.059178   -0.429264
      9          1           0        3.466929    3.566329    0.501223
     10          1           0        1.878721    3.484179    1.282348
     11          6           0        4.003573   -0.621785    0.282792
     12          6           0        4.915192   -1.328270   -0.721108
     13          6           0        5.190399   -2.784886   -0.346507
     14          1           0        4.464662   -0.664253    1.279280
     15          1           0        3.053759   -1.169213    0.354353
     16          1           0        5.862874   -0.778988   -0.790430
     17          1           0        4.453176   -1.283274   -1.715659
     18          1           0        4.255848   -3.352961   -0.296457
     19          1           0        5.673555   -2.845810    0.634029
     20          1           0        5.844055   -3.270810   -1.077582
     21          6           0       -0.812231    1.084975   -0.455781
     22          6           0       -0.853483   -0.121767    0.250330
     23          6           0       -2.069300   -0.777863    0.464516
     24          6           0       -3.229831   -0.196296   -0.043656
     25          6           0       -3.221316    1.004837   -0.751113
     26          6           0       -1.994196    1.643441   -0.953372
     27          1           0        0.136635    1.587851   -0.617534
     28          1           0        0.062866   -0.557807    0.637913
     29          1           0       -2.129988   -1.713118    1.007685
     30          1           0       -4.151433    1.414989   -1.125382
     31          1           0       -1.965172    2.580504   -1.502112
     32          7           0       -4.522945   -0.881616    0.176779
     33          8           0       -5.531312   -0.348560   -0.281131
     34          8           0       -4.503635   -1.938850    0.803294
 ---------------------------------------------------------------------

 SCF Done:  E(RHF) =  -669.534358823     A.U. after   15 cycles
 E2 =    -0.2093086048D+01 EUMP2 =    -0.67162744487103D+03

 The electronic state is 1-A.
 Alpha  occ. eigenvalues --  -20.60730 -20.60725 -15.85784 -11.31142 -11.27718
 Alpha  occ. eigenvalues --  -11.27713 -11.27390 -11.26713 -11.26702 -11.22928
 Alpha  occ. eigenvalues --  -11.22529 -11.22416 -11.22415 -11.22353 -11.21700
 Alpha  occ. eigenvalues --   -1.59806  -1.39360  -1.19315  -1.09529  -1.08706
 Alpha  occ. eigenvalues --   -1.04726  -1.04576  -0.97018  -0.95543  -0.88028
 Alpha  occ. eigenvalues --   -0.86127  -0.82382  -0.80659  -0.79296  -0.77432
 Alpha  occ. eigenvalues --   -0.72004  -0.71130  -0.70514  -0.66233  -0.64962
 Alpha  occ. eigenvalues --   -0.64704  -0.62167  -0.61876  -0.60382  -0.58599
 Alpha  occ. eigenvalues --   -0.56457  -0.55024  -0.53690  -0.53412  -0.53043
 Alpha  occ. eigenvalues --   -0.52823  -0.50980  -0.48941  -0.48764  -0.48757
 Alpha  occ. eigenvalues --   -0.47714  -0.46819  -0.46736  -0.44814  -0.44767
 Alpha  occ. eigenvalues --   -0.37279  -0.36325
 Alpha virt. eigenvalues --    0.05101   0.11266   0.16578   0.18528   0.22404
 Alpha virt. eigenvalues --    0.23111   0.24439   0.25621   0.26956   0.28667
 Alpha virt. eigenvalues --    0.29334   0.30473   0.30895   0.30947   0.32047

 Mulliken charges:
               1
     1  C   -0.299136
     2  C   -0.309774
     3  C   -0.480097
     4  H    0.155094
     5  H    0.147000
     6  H    0.160237
     7  H    0.146441
     8  H    0.146796
     9  H    0.163568
    10  H    0.166279
    11  C   -0.299074
    12  C   -0.300463
    13  C   -0.476372
    14  H    0.153140
    15  H    0.144265
    16  H    0.154313
    17  H    0.153031
    18  H    0.155531
    19  H    0.156598
    20  H    0.163218
    21  C   -0.175778
    22  C   -0.226401
    23  C   -0.170847
    24  C    0.158123
    25  C   -0.170638
    26  C   -0.221519
    27  H    0.237619
    28  H    0.227355
    29  H    0.275622
    30  H    0.275435
    31  H    0.223513
    32  N    0.487991
    33  O   -0.460526
    34  O   -0.460543
 Sum of Mulliken charges =  -0.00000

 Dipole moment (field-independent basis, Debye):
    X=              4.8517    Y=              2.4509    Z=             -0.7302  Tot=              5.4845
 Quadrupole moment (field-independent basis, Debye-Ang):
   XX=           -121.7410   YY=            -94.0359   ZZ=            -93.7616
   XY=            -10.0798   XZ=              4.2451   YZ=             -1.5807

 Normal termination of Gaussian 16 at Thu May  6 12:02:42 2021.
