 Gaussian 16, Revision A.03,
 Gaussian 16:  EM64L-G16RevA.03 25-Dec-2016

 -------------
 #p 6-31g* mp2
 -------------

 ------------------------------------------------------
 Input file generated by CHIRIPA (05-May-2021 14:55:20)
 ------------------------------------------------------
 Symbolic Z-matrix:
 Charge =  0 Multiplicity = 1

                         Standard orientation:
 ---------------------------------------------------------------------
 Center     Atomic      Atomic             Coordinates (Angstroms)
 Number     Number       Type             X           Y           Z
 ---------------------------------------------------------------------
      1          6           0       -1.455250    1.908476    1.022038
      2          6           0       -1.042271    0.629378    1.409180
      3          6           0       -1.718687   -0.504549    0.949594
      4          6           0       -2.808866   -0.321835    0.100233
      5          6           0       -3.244496    0.939359   -0.303384
      6          6           0       -2.553109    2.059118    0.168497
      7          1           0       -0.923979    2.783834    1.383831
      8          1           0       -0.189996    0.509370    2.071956
      9          1           0       -1.420298   -1.506432    1.233514
     10          1           0       -4.097638    1.027194   -0.965088
     11          1           0       -2.876069    3.051261   -0.133818
     12          7           0       -3.532882   -1.514773   -0.392818
     13          8           0       -4.490333   -1.326959   -1.140248
     14          8           0       -3.129206   -2.615024   -0.022506
     15          6           0        4.080243   -0.255814   -0.293270
     16          6           0        3.928844   -1.679536    0.243462
     17          6           0        5.212877   -2.499560    0.114565
     18          1           0        4.385228   -0.298819   -1.347821
     19          1           0        4.893778    0.247724    0.247104
     20          1           0        3.114920   -2.179783   -0.296813
     21          1           0        3.623997   -1.633137    1.296805
     22          1           0        6.029767   -2.025800    0.668501
     23          1           0        5.517796   -2.575551   -0.934172
     24          1           0        5.082240   -3.513927    0.504248
     25          6           0        2.804979    0.576389   -0.171354
     26          6           0        2.956378    2.000111   -0.708085
     27          6           0        1.672345    2.820134   -0.579189
     28          1           0        1.991443    0.072850   -0.711727
     29          1           0        2.499994    0.619394    0.883198
     30          1           0        3.261224    1.953712   -1.761429
     31          1           0        3.770302    2.500358   -0.167811
     32          1           0        1.367426    2.896126    0.469548
     33          1           0        0.855456    2.346374   -1.133124
     34          1           0        1.802982    3.834502   -0.968871
 ---------------------------------------------------------------------

 SCF Done:  E(RHF) =  -669.534723395     A.U. after   15 cycles
 E2 =    -0.2092652044D+01 EUMP2 =    -0.67162737543877D+03

 The electronic state is 1-A.
 Alpha  occ. eigenvalues --  -20.60730 -20.60725 -15.85786 -11.31126 -11.27721
 Alpha  occ. eigenvalues --  -11.27711 -11.27423 -11.26704 -11.26689 -11.22251
 Alpha  occ. eigenvalues --  -11.22018 -11.22005 -11.21867 -11.21837 -11.21363
 Alpha  occ. eigenvalues --   -1.59808  -1.39362  -1.19314  -1.08984  -1.08703
 Alpha  occ. eigenvalues --   -1.04713  -1.04069  -0.96542  -0.95540  -0.87559
 Alpha  occ. eigenvalues --   -0.86110  -0.82376  -0.80152  -0.78791  -0.77422
 Alpha  occ. eigenvalues --   -0.72004  -0.71133  -0.70435  -0.65614  -0.64962
 Alpha  occ. eigenvalues --   -0.64709  -0.62065  -0.61462  -0.59904  -0.58163
 Alpha  occ. eigenvalues --   -0.55892  -0.55188  -0.53246  -0.53212  -0.52836
 Alpha  occ. eigenvalues --   -0.52711  -0.50470  -0.48760  -0.48759  -0.48440
 Alpha  occ. eigenvalues --   -0.47171  -0.46338  -0.46226  -0.44773  -0.44325
 Alpha  occ. eigenvalues --   -0.37211  -0.36314
 Alpha virt. eigenvalues --    0.05104   0.11253   0.16548   0.20020   0.22616
 Alpha virt. eigenvalues --    0.23912   0.25187   0.26082   0.26672   0.28435
 Alpha virt. eigenvalues --    0.28693   0.30265   0.31115   0.31418   0.31772

 Mulliken charges:
               1
     1  C   -0.165942
     2  C   -0.217556
     3  C   -0.171975
     4  C    0.157651
     5  C   -0.170975
     6  C   -0.221300
     7  H    0.227128
     8  H    0.223859
     9  H    0.275593
    10  H    0.275374
    11  H    0.223480
    12  N    0.488135
    13  O   -0.460770
    14  O   -0.460744
    15  C   -0.298684
    16  C   -0.300257
    17  C   -0.476006
    18  H    0.152235
    19  H    0.149772
    20  H    0.154531
    21  H    0.148649
    22  H    0.155139
    23  H    0.156778
    24  H    0.162159
    25  C   -0.298623
    26  C   -0.299938
    27  C   -0.476776
    28  H    0.154266
    29  H    0.140997
    30  H    0.155621
    31  H    0.152527
    32  H    0.142194
    33  H    0.162581
    34  H    0.160876
 Sum of Mulliken charges =  -0.00000

 Dipole moment (field-independent basis, Debye):
    X=              2.6524    Y=              4.1740    Z=              1.6330  Tot=              5.2081
 Quadrupole moment (field-independent basis, Debye-Ang):
   XX=           -108.0787   YY=            -96.6025   ZZ=            -92.8129
   XY=            -14.4072   XZ=             -2.8061   YZ=             -1.6801

 Normal termination of Gaussian 16 at Thu May  6 02:57:04 2021.
