 Gaussian 16, Revision A.03,
 Gaussian 16:  EM64L-G16RevA.03 25-Dec-2016

 -------------
 #p 6-31g* mp2
 -------------

 ------------------------------------------------------
 Input file generated by CHIRIPA (05-May-2021 14:53:16)
 ------------------------------------------------------
 Symbolic Z-matrix:
 Charge =  0 Multiplicity = 1

                         Standard orientation:
 ---------------------------------------------------------------------
 Center     Atomic      Atomic             Coordinates (Angstroms)
 Number     Number       Type             X           Y           Z
 ---------------------------------------------------------------------
      1          6           0        3.020032    0.849016   -0.430845
      2          6           0        3.833638    2.084040   -0.042586
      3          6           0        3.094832    3.392090   -0.327129
      4          1           0        2.768011    0.904637   -1.498710
      5          1           0        2.067104    0.859457    0.116161
      6          1           0        4.785339    2.070554   -0.589120
      7          1           0        4.083915    2.025378    1.024436
      8          1           0        2.153198    3.431731    0.229967
      9          1           0        2.858608    3.477163   -1.392756
     10          1           0        3.694555    4.262108   -0.042066
     11          6           0        3.745296   -0.466349   -0.152394
     12          6           0        2.931690   -1.701373   -0.540652
     13          6           0        3.670497   -3.009422   -0.256110
     14          1           0        4.698224   -0.476790   -0.699400
     15          1           0        3.997317   -0.521970    0.915472
     16          1           0        2.681414   -1.642711   -1.607674
     17          1           0        1.979989   -1.687886    0.005881
     18          1           0        3.906720   -3.094496    0.809518
     19          1           0        4.612130   -3.049064   -0.813206
     20          1           0        3.070773   -3.879440   -0.541172
     21          6           0       -4.422267    0.390959   -1.477168
     22          6           0       -3.498100   -0.628366   -1.728983
     23          6           0       -2.507805   -0.936429   -0.791452
     24          6           0       -2.470664   -0.201728    0.392660
     25          6           0       -3.377234    0.819572    0.672606
     26          6           0       -4.358998    1.110407   -0.279289
     27          1           0       -5.188239    0.623578   -2.211044
     28          1           0       -3.544840   -1.188752   -2.658405
     29          1           0       -1.779812   -1.720508   -0.960761
     30          1           0       -3.305401    1.360750    1.608226
     31          1           0       -5.075405    1.902556   -0.081039
     32          7           0       -1.426800   -0.518740    1.392785
     33          8           0       -1.415389    0.143260    2.428286
     34          8           0       -0.639798   -1.423214    1.122244
 ---------------------------------------------------------------------

 SCF Done:  E(RHF) =  -669.536427093     A.U. after   15 cycles
 E2 =    -0.2091168934D+01 EUMP2 =    -0.67162759602648D+03

 The electronic state is 1-A.
 Alpha  occ. eigenvalues --  -20.61000 -20.60995 -15.86028 -11.31304 -11.27866
 Alpha  occ. eigenvalues --  -11.27859 -11.27599 -11.26865 -11.26854 -11.20992
 Alpha  occ. eigenvalues --  -11.20640 -11.20604 -11.20525 -11.20464 -11.20196
 Alpha  occ. eigenvalues --   -1.60058  -1.39615  -1.19471  -1.08884  -1.07623
 Alpha  occ. eigenvalues --   -1.04861  -1.02751  -0.95733  -0.95238  -0.86265
 Alpha  occ. eigenvalues --   -0.86257  -0.82569  -0.78826  -0.77638  -0.77412
 Alpha  occ. eigenvalues --   -0.72253  -0.71367  -0.70581  -0.65130  -0.64865
 Alpha  occ. eigenvalues --   -0.64235  -0.62209  -0.60131  -0.58617  -0.56844
 Alpha  occ. eigenvalues --   -0.55370  -0.54526  -0.53195  -0.52953  -0.51950
 Alpha  occ. eigenvalues --   -0.51669  -0.49187  -0.49016  -0.49000  -0.47154
 Alpha  occ. eigenvalues --   -0.45854  -0.45242  -0.44978  -0.44581  -0.43009
 Alpha  occ. eigenvalues --   -0.37448  -0.36460
 Alpha virt. eigenvalues --    0.04868   0.11195   0.16340   0.21287   0.23667
 Alpha virt. eigenvalues --    0.25049   0.27162   0.27378   0.27843   0.28635
 Alpha virt. eigenvalues --    0.28720   0.30891   0.32014   0.32195   0.32696

 Mulliken charges:
               1
     1  C   -0.298986
     2  C   -0.299011
     3  C   -0.475571
     4  H    0.144189
     5  H    0.155193
     6  H    0.149562
     7  H    0.153931
     8  H    0.155958
     9  H    0.152020
    10  H    0.158441
    11  C   -0.296596
    12  C   -0.312754
    13  C   -0.474086
    14  H    0.144621
    15  H    0.152175
    16  H    0.142336
    17  H    0.179958
    18  H    0.157058
    19  H    0.149898
    20  H    0.157352
    21  C   -0.170437
    22  C   -0.218577
    23  C   -0.170255
    24  C    0.157775
    25  C   -0.170685
    26  C   -0.218565
    27  H    0.226085
    28  H    0.223980
    29  H    0.276255
    30  H    0.275753
    31  H    0.223876
    32  N    0.490976
    33  O   -0.458957
    34  O   -0.462909
 Sum of Mulliken charges =  -0.00000

 Dipole moment (field-independent basis, Debye):
    X=             -3.9414    Y=              1.0890    Z=             -3.3685  Tot=              5.2979
 Quadrupole moment (field-independent basis, Debye-Ang):
   XX=            -77.2481   YY=            -94.5391   ZZ=            -95.4294
   XY=             -3.1594   XZ=              6.3889   YZ=              3.7195

 Normal termination of Gaussian 16 at Thu May  6 09:03:46 2021.
