 Gaussian 16, Revision A.03,
 Gaussian 16:  EM64L-G16RevA.03 25-Dec-2016

 -------------
 #p 6-31g* mp2
 -------------

 ------------------------------------------------------
 Input file generated by CHIRIPA (05-May-2021 14:57:21)
 ------------------------------------------------------
 Symbolic Z-matrix:
 Charge =  0 Multiplicity = 1

                         Standard orientation:
 ---------------------------------------------------------------------
 Center     Atomic      Atomic             Coordinates (Angstroms)
 Number     Number       Type             X           Y           Z
 ---------------------------------------------------------------------
      1          6           0        2.344813    0.661281    2.515086
      2          6           0        2.191504    1.557444    1.452114
      3          6           0        2.528660    1.178153    0.149420
      4          6           0        3.018480   -0.110840   -0.055184
      5          6           0        3.182544   -1.026469    0.983082
      6          6           0        2.838972   -0.625547    2.277596
      7          1           0        2.080410    0.964326    3.523873
      8          1           0        1.807967    2.557450    1.633592
      9          1           0        2.419961    1.851850   -0.691850
     10          1           0        3.567331   -2.016604    0.770977
     11          1           0        2.959080   -1.323623    3.101190
     12          7           0        3.378807   -0.523829   -1.429959
     13          8           0        3.808263   -1.665106   -1.583875
     14          8           0        3.224954    0.301569   -2.327559
     15          6           0       -1.932081    2.298822   -0.641944
     16          6           0       -3.297861    2.196994   -0.357699
     17          6           0       -3.877624    0.952145   -0.095452
     18          6           0       -3.058381   -0.175332   -0.125904
     19          6           0       -1.694508   -0.106416   -0.405891
     20          6           0       -1.136166    1.148819   -0.665093
     21          1           0       -1.490027    3.269885   -0.844481
     22          1           0       -3.918406    3.088409   -0.339038
     23          1           0       -4.932220    0.844602    0.127437
     24          1           0       -1.101504   -1.012857   -0.417291
     25          1           0       -0.075196    1.224892   -0.885544
     26          7           0       -3.660811   -1.498696    0.150113
     27          8           0       -2.917456   -2.476948    0.117204
     28          8           0       -4.864945   -1.532639    0.394138
 ---------------------------------------------------------------------

 SCF Done:  E(RHF) =  -868.336787015     A.U. after   16 cycles
 E2 =    -0.2601543436D+01 EUMP2 =    -0.87093833045116D+03

 The electronic state is 1-A.
 Alpha  occ. eigenvalues --  -20.61491 -20.61458 -20.60837 -20.60831 -15.86531
 Alpha  occ. eigenvalues --  -15.85889 -11.32001 -11.31271 -11.28609 -11.28449
 Alpha  occ. eigenvalues --  -11.28192 -11.27837 -11.27797 -11.27609 -11.27595
 Alpha  occ. eigenvalues --  -11.27461 -11.26887 -11.26785  -1.60553  -1.59912
 Alpha  occ. eigenvalues --   -1.40104  -1.39465  -1.20150  -1.19441  -1.09497
 Alpha  occ. eigenvalues --   -1.08849  -1.05566  -1.04831  -0.96331  -0.95678
 Alpha  occ. eigenvalues --   -0.86940  -0.86247  -0.83156  -0.82500  -0.78223
 Alpha  occ. eigenvalues --   -0.77537  -0.72733  -0.72108  -0.71893  -0.71236
 Alpha  occ. eigenvalues --   -0.71214  -0.70576  -0.65779  -0.65544  -0.65094
 Alpha  occ. eigenvalues --   -0.64860  -0.62914  -0.62166  -0.55982  -0.55396
 Alpha  occ. eigenvalues --   -0.53964  -0.53632  -0.53160  -0.52815  -0.49509
 Alpha  occ. eigenvalues --   -0.49487  -0.48868  -0.48860  -0.45481  -0.44866
 Alpha  occ. eigenvalues --   -0.38092  -0.37527  -0.37148  -0.36326
 Alpha virt. eigenvalues --    0.04281   0.04986   0.10343   0.11204   0.15804
 Alpha virt. eigenvalues --    0.16491   0.20146   0.21735   0.25804   0.27182
 Alpha virt. eigenvalues --    0.27910   0.28722   0.29954   0.31091   0.31869

 Mulliken charges:
               1
     1  C   -0.170195
     2  C   -0.213003
     3  C   -0.187591
     4  C    0.159206
     5  C   -0.170846
     6  C   -0.216374
     7  H    0.229535
     8  H    0.223333
     9  H    0.271540
    10  H    0.279746
    11  H    0.228760
    12  N    0.488005
    13  O   -0.454683
    14  O   -0.462989
    15  C   -0.175139
    16  C   -0.218307
    17  C   -0.171836
    18  C    0.158447
    19  C   -0.173253
    20  C   -0.218185
    21  H    0.222522
    22  H    0.222927
    23  H    0.275473
    24  H    0.277034
    25  H    0.228309
    26  N    0.487940
    27  O   -0.459669
    28  O   -0.460706
 Sum of Mulliken charges =  -0.00000

 Dipole moment (field-independent basis, Debye):
    X=              1.0540    Y=              5.9129    Z=              4.0604  Tot=              7.2498
 Quadrupole moment (field-independent basis, Debye-Ang):
   XX=           -121.6032   YY=           -102.4738   ZZ=           -105.3231
   XY=            -14.1420   XZ=             17.8504   YZ=             -2.4381

 Normal termination of Gaussian 16 at Thu May  6 04:54:58 2021.
