 Gaussian 16, Revision A.03,
 Gaussian 16:  EM64L-G16RevA.03 25-Dec-2016

 -------------
 #p 6-31g* mp2
 -------------

 ------------------------------------------------------
 Input file generated by CHIRIPA (05-May-2021 14:51:13)
 ------------------------------------------------------
 Symbolic Z-matrix:
 Charge =  0 Multiplicity = 1

                         Standard orientation:
 ---------------------------------------------------------------------
 Center     Atomic      Atomic             Coordinates (Angstroms)
 Number     Number       Type             X           Y           Z
 ---------------------------------------------------------------------
      1          6           0       -3.398773    0.450030   -0.592190
      2          6           0       -3.810162   -1.021201   -0.527193
      3          6           0       -4.790191   -1.410459   -1.634357
      4          1           0       -4.297315    1.078687   -0.526179
      5          1           0       -2.945937    0.653963   -1.572366
      6          1           0       -4.260831   -1.222626    0.453084
      7          1           0       -2.910519   -1.646425   -0.593173
      8          1           0       -4.346228   -1.237710   -2.620083
      9          1           0       -5.704212   -0.811503   -1.567882
     10          1           0       -5.070957   -2.466283   -1.569043
     11          6           0       -2.419274    0.854373    0.508181
     12          6           0       -2.007886    2.325604    0.443184
     13          6           0       -1.027856    2.714862    1.550349
     14          1           0       -2.872111    0.650440    1.488357
     15          1           0       -1.520732    0.225716    0.442170
     16          1           0       -2.907529    2.950828    0.509164
     17          1           0       -1.557217    2.527029   -0.537092
     18          1           0       -0.113835    2.115906    1.483873
     19          1           0       -1.471819    2.542113    2.536074
     20          1           0       -0.747090    3.770686    1.485035
     21          6           0        3.108867   -0.255977   -0.579687
     22          6           0        4.504092    0.361971   -0.482348
     23          6           0        4.889562    1.151497   -1.733689
     24          1           0        3.066981   -0.914658   -1.457941
     25          1           0        2.373281    0.541903   -0.752014
     26          1           0        5.236665   -0.436691   -0.308876
     27          1           0        4.542720    1.019109    0.395885
     28          1           0        4.181125    1.967889   -1.907535
     29          1           0        4.879012    0.503817   -2.616300
     30          1           0        5.890570    1.584570   -1.642629
     31          6           0        2.709179   -1.048426    0.663696
     32          6           0        1.313956   -1.666374    0.566357
     33          6           0        0.928486   -2.455900    1.817698
     34          1           0        3.444766   -1.846306    0.836022
     35          1           0        2.751067   -0.389745    1.541950
     36          1           0        1.275328   -2.323512   -0.311876
     37          1           0        0.581383   -0.867712    0.392884
     38          1           0        0.939035   -1.808220    2.700308
     39          1           0        1.636923   -3.272292    1.991544
     40          1           0       -0.072522   -2.888973    1.726638
 ---------------------------------------------------------------------

 SCF Done:  E(RHF) =  -470.733400951     A.U. after   11 cycles
 E2 =    -0.1583211525D+01 EUMP2 =    -0.47231661247577D+03

 The electronic state is 1-A.
 Alpha  occ. eigenvalues --  -11.21640 -11.21637 -11.21626 -11.21603 -11.21445
 Alpha  occ. eigenvalues --  -11.21411 -11.21385 -11.21351 -11.21132 -11.21090
 Alpha  occ. eigenvalues --  -11.21085 -11.21071  -1.08477  -1.08439  -1.03566
 Alpha  occ. eigenvalues --   -1.03545  -0.96012  -0.95993  -0.87025  -0.87013
 Alpha  occ. eigenvalues --   -0.79654  -0.79591  -0.78347  -0.78198  -0.65227
 Alpha  occ. eigenvalues --   -0.64969  -0.61035  -0.60876  -0.59382  -0.59360
 Alpha  occ. eigenvalues --   -0.57651  -0.57578  -0.55350  -0.55233  -0.52705
 Alpha  occ. eigenvalues --   -0.52688  -0.52442  -0.52414  -0.49996  -0.49908
 Alpha  occ. eigenvalues --   -0.48022  -0.47888  -0.46845  -0.46577  -0.46046
 Alpha  occ. eigenvalues --   -0.45791  -0.45761  -0.45307  -0.43813  -0.43802
 Alpha virt. eigenvalues --    0.19886   0.23027   0.23984   0.24340   0.25778
 Alpha virt. eigenvalues --    0.26631   0.27041   0.27594   0.28412   0.29285
 Alpha virt. eigenvalues --    0.30658   0.31653   0.31667   0.31861   0.32296

 Mulliken charges:
               1
     1  C   -0.297510
     2  C   -0.300074
     3  C   -0.475719
     4  H    0.149685
     5  H    0.149527
     6  H    0.151915
     7  H    0.152293
     8  H    0.155277
     9  H    0.155179
    10  H    0.160246
    11  C   -0.308681
    12  C   -0.299110
    13  C   -0.476465
    14  H    0.149733
    15  H    0.159350
    16  H    0.152282
    17  H    0.151663
    18  H    0.154435
    19  H    0.155600
    20  H    0.160493
    21  C   -0.298546
    22  C   -0.299689
    23  C   -0.475768
    24  H    0.149726
    25  H    0.148986
    26  H    0.152072
    27  H    0.152224
    28  H    0.155247
    29  H    0.155140
    30  H    0.160414
    31  C   -0.297707
    32  C   -0.309194
    33  C   -0.475381
    34  H    0.149875
    35  H    0.149864
    36  H    0.151915
    37  H    0.159006
    38  H    0.155644
    39  H    0.155290
    40  H    0.160764
 Sum of Mulliken charges =  -0.00000

 Dipole moment (field-independent basis, Debye):
    X=              0.0007    Y=             -0.0078    Z=              0.0074  Tot=              0.0108
 Quadrupole moment (field-independent basis, Debye-Ang):
   XX=            -84.6329   YY=            -84.5485   ZZ=            -85.4713
   XY=             -1.1204   XZ=             -0.8301   YZ=              0.6806

 Normal termination of Gaussian 16 at Thu May  6 03:59:22 2021.
