 Gaussian 16, Revision A.03,
 Gaussian 16:  EM64L-G16RevA.03 25-Dec-2016

 -------------
 #p 6-31g* mp2
 -------------

 ------------------------------------------------------
 Input file generated by CHIRIPA (05-May-2021 14:53:13)
 ------------------------------------------------------
 Symbolic Z-matrix:
 Charge =  0 Multiplicity = 1

                         Standard orientation:
 ---------------------------------------------------------------------
 Center     Atomic      Atomic             Coordinates (Angstroms)
 Number     Number       Type             X           Y           Z
 ---------------------------------------------------------------------
      1          6           0       -3.568677   -0.714110    0.104177
      2          6           0       -2.703808   -0.570803    1.356954
      3          6           0       -1.403654   -1.370958    1.272424
      4          1           0       -3.799847   -1.776336   -0.054513
      5          1           0       -2.991211   -0.385747   -0.771097
      6          1           0       -3.283208   -0.898036    2.229782
      7          1           0       -2.474830    0.491224    1.512788
      8          1           0       -0.802290   -1.039853    0.419587
      9          1           0       -1.615262   -2.437007    1.140655
     10          1           0       -0.800771   -1.254198    2.178383
     11          6           0       -4.871860    0.080008    0.173594
     12          6           0       -5.736730   -0.063300   -1.079182
     13          6           0       -7.036884    0.736855   -0.994653
     14          1           0       -5.449327   -0.248355    1.048869
     15          1           0       -4.640691    1.142233    0.332285
     16          1           0       -5.965708   -1.125327   -1.235016
     17          1           0       -5.157329    0.263934   -1.952010
     18          1           0       -6.825276    1.802904   -0.862883
     19          1           0       -7.638247    0.405750   -0.141815
     20          1           0       -7.639766    0.620096   -1.900611
     21          6           0        2.099017    2.400509    0.435509
     22          6           0        1.433589    1.177027    0.565188
     23          6           0        2.087533   -0.022020    0.266539
     24          6           0        3.412910    0.039571   -0.161098
     25          6           0        4.102945    1.242808   -0.300241
     26          6           0        3.429227    2.429444    0.003969
     27          1           0        1.583337    3.327137    0.669667
     28          1           0        0.400526    1.151526    0.900114
     29          1           0        1.596252   -0.983096    0.358161
     30          1           0        5.132699    1.236299   -0.636371
     31          1           0        3.948509    3.378160   -0.097662
     32          7           0        4.115679   -1.223238   -0.480208
     33          8           0        5.283383   -1.142020   -0.855050
     34          8           0        3.485497   -2.270333   -0.349442
 ---------------------------------------------------------------------

 SCF Done:  E(RHF) =  -669.535040333     A.U. after   15 cycles
 E2 =    -0.2091970055D+01 EUMP2 =    -0.67162701038753D+03

 The electronic state is 1-A.
 Alpha  occ. eigenvalues --  -20.60701 -20.60695 -15.85752 -11.31103 -11.27691
 Alpha  occ. eigenvalues --  -11.27621 -11.27431 -11.26708 -11.26651 -11.22470
 Alpha  occ. eigenvalues --  -11.22035 -11.22019 -11.22004 -11.21889 -11.21421
 Alpha  occ. eigenvalues --   -1.59776  -1.39329  -1.19282  -1.09049  -1.08682
 Alpha  occ. eigenvalues --   -1.04698  -1.04168  -0.96632  -0.95517  -0.87657
 Alpha  occ. eigenvalues --   -0.86082  -0.82355  -0.80251  -0.78821  -0.77395
 Alpha  occ. eigenvalues --   -0.71972  -0.71099  -0.70405  -0.65713  -0.64937
 Alpha  occ. eigenvalues --   -0.64687  -0.62276  -0.61371  -0.59997  -0.58214
 Alpha  occ. eigenvalues --   -0.55922  -0.55161  -0.53327  -0.53104  -0.52975
 Alpha  occ. eigenvalues --   -0.52732  -0.50560  -0.48730  -0.48728  -0.48542
 Alpha  occ. eigenvalues --   -0.47277  -0.46368  -0.46275  -0.44737  -0.44407
 Alpha  occ. eigenvalues --   -0.37272  -0.36283
 Alpha virt. eigenvalues --    0.05111   0.11363   0.16557   0.19733   0.22586
 Alpha virt. eigenvalues --    0.23676   0.25796   0.25977   0.26848   0.28111
 Alpha virt. eigenvalues --    0.29140   0.29890   0.31109   0.31317   0.32033

 Mulliken charges:
               1
     1  C   -0.299074
     2  C   -0.301864
     3  C   -0.486500
     4  H    0.153671
     5  H    0.149963
     6  H    0.157183
     7  H    0.145827
     8  H    0.150555
     9  H    0.166281
    10  H    0.161830
    11  C   -0.298531
    12  C   -0.300212
    13  C   -0.475988
    14  H    0.150999
    15  H    0.147993
    16  H    0.153760
    17  H    0.152474
    18  H    0.154697
    19  H    0.155919
    20  H    0.161868
    21  C   -0.171383
    22  C   -0.224243
    23  C   -0.177915
    24  C    0.159635
    25  C   -0.170880
    26  C   -0.218713
    27  H    0.225225
    28  H    0.230220
    29  H    0.281734
    30  H    0.275298
    31  H    0.223079
    32  N    0.488314
    33  O   -0.460860
    34  O   -0.460359
 Sum of Mulliken charges =  -0.00000

 Dipole moment (field-independent basis, Debye):
    X=             -2.6929    Y=              4.3425    Z=              1.1309  Tot=              5.2334
 Quadrupole moment (field-independent basis, Debye-Ang):
   XX=           -108.5645   YY=            -92.9443   ZZ=            -95.4932
   XY=             18.8352   XZ=              2.8804   YZ=             -1.7631

 Normal termination of Gaussian 16 at Wed May  5 23:25:30 2021.
