 Gaussian 16, Revision A.03,
 Gaussian 16:  EM64L-G16RevA.03 25-Dec-2016

 -------------
 #p 6-31g* mp2
 -------------

 ------------------------------------------------------
 Input file generated by CHIRIPA (05-May-2021 14:57:24)
 ------------------------------------------------------
 Symbolic Z-matrix:
 Charge =  0 Multiplicity = 1

                         Standard orientation:
 ---------------------------------------------------------------------
 Center     Atomic      Atomic             Coordinates (Angstroms)
 Number     Number       Type             X           Y           Z
 ---------------------------------------------------------------------
      1          6           0        2.533472    2.756694   -0.234264
      2          6           0        3.771417    2.138947   -0.028341
      3          6           0        3.861550    0.748017    0.079999
      4          6           0        2.688359    0.002135   -0.022822
      5          6           0        1.440271    0.588237   -0.227886
      6          6           0        1.373895    1.980735   -0.333205
      7          1           0        2.472682    3.837811   -0.317251
      8          1           0        4.673613    2.739049    0.048890
      9          1           0        4.806961    0.243860    0.239507
     10          1           0        0.558338   -0.036506   -0.300739
     11          1           0        0.411132    2.457768   -0.493118
     12          7           0        2.771204   -1.471210    0.090273
     13          8           0        1.722913   -2.105932   -0.003802
     14          8           0        3.882860   -1.963397    0.270852
     15          6           0       -1.662954   -2.542883   -0.207210
     16          6           0       -1.733627   -1.941880    1.053870
     17          6           0       -2.292142   -0.668997    1.203468
     18          6           0       -2.772517   -0.022806    0.065501
     19          6           0       -2.716357   -0.595213   -1.204335
     20          6           0       -2.153680   -1.868819   -1.330307
     21          1           0       -1.227470   -3.531970   -0.314244
     22          1           0       -1.353313   -2.463017    1.927839
     23          1           0       -2.359429   -0.180438    2.167936
     24          1           0       -3.103802   -0.050969   -2.057038
     25          1           0       -2.100113   -2.333126   -2.310917
     26          7           0       -3.365995    1.325121    0.211369
     27          8           0       -3.782175    1.873522   -0.806810
     28          8           0       -3.403746    1.807701    1.341115
 ---------------------------------------------------------------------

 SCF Done:  E(RHF) =  -868.340241238     A.U. after   16 cycles
 E2 =    -0.2601439301D+01 EUMP2 =    -0.87094168053954D+03

 The electronic state is 1-A.
 Alpha  occ. eigenvalues --  -20.61218 -20.61159 -20.61049 -20.61039 -15.86232
 Alpha  occ. eigenvalues --  -15.86097 -11.31290 -11.31237 -11.27852 -11.27806
 Alpha  occ. eigenvalues --  -11.27748 -11.27740 -11.27501 -11.27263 -11.26797
 Alpha  occ. eigenvalues --  -11.26710 -11.26641 -11.26548  -1.60269  -1.60143
 Alpha  occ. eigenvalues --   -1.39832  -1.39695  -1.19442  -1.19381  -1.08889
 Alpha  occ. eigenvalues --   -1.08743  -1.04789  -1.04719  -0.95782  -0.95617
 Alpha  occ. eigenvalues --   -0.86197  -0.86082  -0.82630  -0.82451  -0.77703
 Alpha  occ. eigenvalues --   -0.77589  -0.72497  -0.72295  -0.71581  -0.71498
 Alpha  occ. eigenvalues --   -0.70538  -0.70302  -0.65091  -0.64962  -0.64781
 Alpha  occ. eigenvalues --   -0.64638  -0.62152  -0.62055  -0.55309  -0.55046
 Alpha  occ. eigenvalues --   -0.53319  -0.53145  -0.52747  -0.52574  -0.49228
 Alpha  occ. eigenvalues --   -0.49193  -0.49075  -0.49038  -0.45311  -0.45148
 Alpha  occ. eigenvalues --   -0.37407  -0.37197  -0.36524  -0.36218
 Alpha virt. eigenvalues --    0.04772   0.04949   0.11271   0.11335   0.16339
 Alpha virt. eigenvalues --    0.16568   0.21367   0.21748   0.27059   0.27552
 Alpha virt. eigenvalues --    0.28219   0.28670   0.30971   0.31479   0.32295

 Mulliken charges:
               1
     1  C   -0.169740
     2  C   -0.219327
     3  C   -0.170795
     4  C    0.154905
     5  C   -0.176991
     6  C   -0.221679
     7  H    0.228541
     8  H    0.223797
     9  H    0.274521
    10  H    0.284045
    11  H    0.229979
    12  N    0.490638
    13  O   -0.472208
    14  O   -0.459326
    15  C   -0.154042
    16  C   -0.215877
    17  C   -0.179272
    18  C    0.149494
    19  C   -0.177821
    20  C   -0.223614
    21  H    0.237672
    22  H    0.229619
    23  H    0.274928
    24  H    0.274076
    25  H    0.225642
    26  N    0.486735
    27  O   -0.462732
    28  O   -0.461168
 Sum of Mulliken charges =  -0.00000

 Dipole moment (field-independent basis, Debye):
    X=              1.8798    Y=              0.1790    Z=             -0.8811  Tot=              2.0838
 Quadrupole moment (field-independent basis, Debye-Ang):
   XX=           -114.3460   YY=           -104.5565   ZZ=           -100.8015
   XY=             28.4837   XZ=              2.1312   YZ=             -0.6138

 Normal termination of Gaussian 16 at Fri May  7 06:31:58 2021.
