 Gaussian 16, Revision A.03,
 Gaussian 16:  EM64L-G16RevA.03 25-Dec-2016

 -------------
 #p 6-31g* mp2
 -------------

 ------------------------------------------------------
 Input file generated by CHIRIPA (05-May-2021 14:51:11)
 ------------------------------------------------------
 Symbolic Z-matrix:
 Charge =  0 Multiplicity = 1

                         Standard orientation:
 ---------------------------------------------------------------------
 Center     Atomic      Atomic             Coordinates (Angstroms)
 Number     Number       Type             X           Y           Z
 ---------------------------------------------------------------------
      1          6           0       -2.166694   -0.627361    0.270697
      2          6           0       -1.855026   -1.498200    1.488271
      3          6           0       -0.387951   -1.924391    1.550292
      4          1           0       -1.904481   -1.178241   -0.642933
      5          1           0       -1.525398    0.264630    0.292771
      6          1           0       -2.497694   -2.387603    1.464643
      7          1           0       -2.118191   -0.945256    2.399102
      8          1           0        0.266159   -1.047795    1.598458
      9          1           0       -0.115499   -2.498337    0.658689
     10          1           0       -0.187274   -2.546095    2.428400
     11          6           0       -3.629418   -0.193308    0.194775
     12          6           0       -3.941086    0.677531   -1.022799
     13          6           0       -5.408161    1.103722   -1.084820
     14          1           0       -4.270714   -1.085299    0.172701
     15          1           0       -3.891632    0.357572    1.108405
     16          1           0       -3.677921    0.124587   -1.933630
     17          1           0       -3.298419    1.566934   -0.999170
     18          1           0       -5.680614    1.677668   -0.193217
     19          1           0       -6.062272    0.227126   -1.132986
     20          1           0       -5.608839    1.725426   -1.962928
     21          6           0        2.552292    0.930648    0.206757
     22          6           0        3.044955    2.356905   -0.040340
     23          6           0        2.343844    3.386462    0.846368
     24          1           0        1.468308    0.888694    0.033083
     25          1           0        2.709723    0.673688    1.263441
     26          1           0        2.887912    2.610604   -1.096555
     27          1           0        4.127924    2.395424    0.133756
     28          1           0        2.510880    3.160925    1.904590
     29          1           0        1.263821    3.377328    0.667288
     30          1           0        2.711208    4.399182    0.653231
     31          6           0        3.243821   -0.109978   -0.672229
     32          6           0        2.751158   -1.536236   -0.425132
     33          6           0        3.452269   -2.565793   -1.311840
     34          1           0        3.086390    0.146981   -1.728913
     35          1           0        4.327805   -0.068026   -0.498555
     36          1           0        1.668188   -1.574755   -0.599229
     37          1           0        2.908200   -1.789935    0.631083
     38          1           0        4.532291   -2.556659   -1.132760
     39          1           0        3.285233   -2.340256   -2.370062
     40          1           0        3.084905   -3.578513   -1.118703
 ---------------------------------------------------------------------

 SCF Done:  E(RHF) =  -470.732119718     A.U. after   11 cycles
 E2 =    -0.1584131545D+01 EUMP2 =    -0.47231625126328D+03

 The electronic state is 1-A.
 Alpha  occ. eigenvalues --  -11.21627 -11.21612 -11.21564 -11.21433 -11.21432
 Alpha  occ. eigenvalues --  -11.21394 -11.21372 -11.21309 -11.21099 -11.21089
 Alpha  occ. eigenvalues --  -11.20999 -11.20932  -1.08457  -1.08387  -1.03552
 Alpha  occ. eigenvalues --   -1.03464  -0.95976  -0.95952  -0.87037  -0.86930
 Alpha  occ. eigenvalues --   -0.79745  -0.79449  -0.78384  -0.78064  -0.65075
 Alpha  occ. eigenvalues --   -0.65034  -0.60986  -0.60839  -0.59385  -0.59301
 Alpha  occ. eigenvalues --   -0.57630  -0.57530  -0.55285  -0.55212  -0.52720
 Alpha  occ. eigenvalues --   -0.52652  -0.52463  -0.52292  -0.49962  -0.49853
 Alpha  occ. eigenvalues --   -0.48222  -0.47674  -0.46737  -0.46463  -0.46113
 Alpha  occ. eigenvalues --   -0.45718  -0.45663  -0.45195  -0.43781  -0.43746
 Alpha virt. eigenvalues --    0.21089   0.23230   0.23689   0.24065   0.25643
 Alpha virt. eigenvalues --    0.25975   0.26621   0.27643   0.27983   0.29775
 Alpha virt. eigenvalues --    0.30856   0.31252   0.31675   0.31821   0.32142

 Mulliken charges:
               1
     1  C   -0.300353
     2  C   -0.300111
     3  C   -0.480653
     4  H    0.148874
     5  H    0.150265
     6  H    0.151492
     7  H    0.151638
     8  H    0.162290
     9  H    0.157228
    10  H    0.159027
    11  C   -0.298092
    12  C   -0.299629
    13  C   -0.475720
    14  H    0.149805
    15  H    0.149934
    16  H    0.151823
    17  H    0.151603
    18  H    0.155304
    19  H    0.155271
    20  H    0.160278
    21  C   -0.302711
    22  C   -0.299414
    23  C   -0.475663
    24  H    0.152529
    25  H    0.149539
    26  H    0.152112
    27  H    0.152192
    28  H    0.155128
    29  H    0.154430
    30  H    0.160471
    31  C   -0.297618
    32  C   -0.303131
    33  C   -0.475969
    34  H    0.149040
    35  H    0.149126
    36  H    0.158091
    37  H    0.152711
    38  H    0.154708
    39  H    0.154481
    40  H    0.159674
 Sum of Mulliken charges =  -0.00000

 Dipole moment (field-independent basis, Debye):
    X=             -0.0024    Y=             -0.0035    Z=              0.0127  Tot=              0.0133
 Quadrupole moment (field-independent basis, Debye-Ang):
   XX=            -85.5544   YY=            -85.0195   ZZ=            -84.3808
   XY=              0.8708   XZ=              0.7727   YZ=             -0.0634

 Normal termination of Gaussian 16 at Wed May  5 19:50:08 2021.
