 Gaussian 16, Revision A.03,
 Gaussian 16:  EM64L-G16RevA.03 25-Dec-2016

 -------------
 #p 6-31g* mp2
 -------------

 ------------------------------------------------------
 Input file generated by CHIRIPA (05-May-2021 14:51:12)
 ------------------------------------------------------
 Symbolic Z-matrix:
 Charge =  0 Multiplicity = 1

                         Standard orientation:
 ---------------------------------------------------------------------
 Center     Atomic      Atomic             Coordinates (Angstroms)
 Number     Number       Type             X           Y           Z
 ---------------------------------------------------------------------
      1          6           0       -1.831537   -1.310219   -0.172233
      2          6           0       -1.462838   -2.465025    0.759685
      3          6           0       -0.139615   -3.130927    0.380941
      4          1           0       -1.889540   -1.684000   -1.203673
      5          1           0       -1.025975   -0.563105   -0.155354
      6          1           0       -2.269488   -3.209083    0.742115
      7          1           0       -1.405894   -2.088491    1.789052
      8          1           0        0.680397   -2.406432    0.416835
      9          1           0       -0.188104   -3.533391   -0.636051
     10          1           0        0.104629   -3.953686    1.060112
     11          6           0       -3.151860   -0.634440    0.193549
     12          6           0       -3.520558    0.520365   -0.738369
     13          6           0       -4.843782    1.186268   -0.359625
     14          1           0       -3.957422   -1.381555    0.176670
     15          1           0       -3.093857   -0.260660    1.224989
     16          1           0       -3.577503    0.143832   -1.767736
     17          1           0       -2.713909    1.264424   -0.720799
     18          1           0       -4.795292    1.588732    0.657367
     19          1           0       -5.663793    0.461772   -0.395519
     20          1           0       -5.088026    2.009026   -1.038796
     21          6           0        1.856430    1.353422   -0.196763
     22          6           0        1.560395    2.529838    0.734041
     23          6           0        0.286378    3.282366    0.348845
     24          1           0        1.944592    1.722902   -1.227616
     25          1           0        1.002912    0.661503   -0.184643
     26          1           0        2.414800    3.218637    0.721233
     27          1           0        1.473117    2.157542    1.762824
     28          1           0       -0.580156    2.613969    0.379921
     29          1           0        0.366878    3.681092   -0.667588
     30          1           0        0.093783    4.119291    1.027319
     31          6           0        3.126966    0.591237    0.175447
     32          6           0        3.423001   -0.585178   -0.755357
     33          6           0        4.697019   -1.337707   -0.370161
     34          1           0        3.980486    1.283157    0.163328
     35          1           0        3.038804    0.221759    1.206300
     36          1           0        3.510279   -0.212882   -1.784139
     37          1           0        2.568597   -1.273977   -0.742548
     38          1           0        4.616519   -1.736433    0.646273
     39          1           0        5.563552   -0.669308   -0.401237
     40          1           0        4.889614   -2.174630   -1.048635
 ---------------------------------------------------------------------

 SCF Done:  E(RHF) =  -470.732917987     A.U. after   11 cycles
 E2 =    -0.1584676512D+01 EUMP2 =    -0.47231759449860D+03

 The electronic state is 1-A.
 Alpha  occ. eigenvalues --  -11.21659 -11.21652 -11.21611 -11.21579 -11.21440
 Alpha  occ. eigenvalues --  -11.21429 -11.21380 -11.21369 -11.21137 -11.21136
 Alpha  occ. eigenvalues --  -11.21070 -11.21053  -1.08497  -1.08438  -1.03578
 Alpha  occ. eigenvalues --   -1.03543  -0.96026  -0.95998  -0.87067  -0.86990
 Alpha  occ. eigenvalues --   -0.79671  -0.79581  -0.78421  -0.78146  -0.65338
 Alpha  occ. eigenvalues --   -0.64888  -0.61083  -0.60858  -0.59401  -0.59356
 Alpha  occ. eigenvalues --   -0.57679  -0.57565  -0.55391  -0.55225  -0.52708
 Alpha  occ. eigenvalues --   -0.52695  -0.52538  -0.52348  -0.50139  -0.49766
 Alpha  occ. eigenvalues --   -0.48082  -0.47853  -0.46788  -0.46708  -0.46242
 Alpha  occ. eigenvalues --   -0.45787  -0.45781  -0.45015  -0.43819  -0.43805
 Alpha virt. eigenvalues --    0.19434   0.21591   0.24147   0.24444   0.25123
 Alpha virt. eigenvalues --    0.27033   0.27058   0.27265   0.27947   0.29751
 Alpha virt. eigenvalues --    0.31184   0.31517   0.31650   0.31805   0.32069

 Mulliken charges:
               1
     1  C   -0.309009
     2  C   -0.298923
     3  C   -0.481978
     4  H    0.150177
     5  H    0.158347
     6  H    0.152451
     7  H    0.151575
     8  H    0.160127
     9  H    0.155753
    10  H    0.160798
    11  C   -0.297352
    12  C   -0.304541
    13  C   -0.475487
    14  H    0.149852
    15  H    0.149249
    16  H    0.152261
    17  H    0.156165
    18  H    0.155212
    19  H    0.155130
    20  H    0.160577
    21  C   -0.309230
    22  C   -0.298973
    23  C   -0.480181
    24  H    0.150216
    25  H    0.158483
    26  H    0.152457
    27  H    0.151567
    28  H    0.157988
    29  H    0.155818
    30  H    0.160728
    31  C   -0.297479
    32  C   -0.306434
    33  C   -0.475354
    34  H    0.149842
    35  H    0.149104
    36  H    0.152156
    37  H    0.158198
    38  H    0.155153
    39  H    0.155032
    40  H    0.160524
 Sum of Mulliken charges =  -0.00000

 Dipole moment (field-independent basis, Debye):
    X=             -0.0053    Y=             -0.0053    Z=             -0.0163  Tot=              0.0179
 Quadrupole moment (field-independent basis, Debye-Ang):
   XX=            -85.9107   YY=            -84.6626   ZZ=            -84.0725
   XY=              1.7970   XZ=             -0.0192   YZ=              0.0358

 Normal termination of Gaussian 16 at Wed May  5 23:08:47 2021.
