 Gaussian 16, Revision A.03,
 Gaussian 16:  EM64L-G16RevA.03 25-Dec-2016

 -------------
 #p 6-31g* mp2
 -------------

 ------------------------------------------------------
 Input file generated by CHIRIPA (05-May-2021 14:53:17)
 ------------------------------------------------------
 Symbolic Z-matrix:
 Charge =  0 Multiplicity = 1

                         Standard orientation:
 ---------------------------------------------------------------------
 Center     Atomic      Atomic             Coordinates (Angstroms)
 Number     Number       Type             X           Y           Z
 ---------------------------------------------------------------------
      1          6           0        3.608661    0.819421   -0.504878
      2          6           0        2.590500    1.440076    0.452263
      3          6           0        1.847422    2.626278   -0.163003
      4          1           0        4.331505    1.588336   -0.810183
      5          1           0        3.092085    0.495493   -1.418998
      6          1           0        3.108618    1.761482    1.364880
      7          1           0        1.870109    0.669547    0.755475
      8          1           0        1.305218    2.316715   -1.062329
      9          1           0        2.550764    3.414854   -0.449462
     10          1           0        1.124607    3.054721    0.538307
     11          6           0        4.359597   -0.367575    0.095841
     12          6           0        5.377758   -0.988231   -0.861301
     13          6           0        6.120836   -2.174433   -0.246034
     14          1           0        4.876173   -0.043647    1.009961
     15          1           0        3.636753   -1.136490    0.401146
     16          1           0        6.098149   -0.217702   -1.164513
     17          1           0        4.859640   -1.309637   -1.773917
     18          1           0        5.417494   -2.963008    0.040425
     19          1           0        6.663040   -1.864869    0.653292
     20          1           0        6.843651   -2.602875   -0.947345
     21          6           0       -5.167003   -0.743897   -1.190559
     22          6           0       -4.467902    0.440810   -1.444034
     23          6           0       -3.328309    0.765374   -0.702055
     24          6           0       -2.913989   -0.121649    0.290326
     25          6           0       -3.589128   -1.309563    0.566615
     26          6           0       -4.726162   -1.613769   -0.187812
     27          1           0       -6.051272   -0.988119   -1.771782
     28          1           0       -4.807962    1.118245   -2.222163
     29          1           0       -2.768213    1.675862   -0.877333
     30          1           0       -3.225871   -1.965034    1.348804
     31          1           0       -5.267114   -2.534527    0.011236
     32          7           0       -1.708907    0.211177    1.082415
     33          8           0       -1.364379   -0.587033    1.951206
     34          8           0       -1.131711    1.263953    0.819465
 ---------------------------------------------------------------------

 SCF Done:  E(RHF) =  -669.536059257     A.U. after   15 cycles
 E2 =    -0.2091576804D+01 EUMP2 =    -0.67162763606117D+03

 The electronic state is 1-A.
 Alpha  occ. eigenvalues --  -20.61003 -20.60989 -15.86019 -11.31328 -11.27888
 Alpha  occ. eigenvalues --  -11.27883 -11.27623 -11.26891 -11.26881 -11.20907
 Alpha  occ. eigenvalues --  -11.20490 -11.20466 -11.20277 -11.20013 -11.19465
 Alpha  occ. eigenvalues --   -1.60055  -1.39611  -1.19494  -1.08902  -1.07391
 Alpha  occ. eigenvalues --   -1.04887  -1.02414  -0.95751  -0.94885  -0.86289
 Alpha  occ. eigenvalues --   -0.85927  -0.82578  -0.78535  -0.77633  -0.77138
 Alpha  occ. eigenvalues --   -0.72248  -0.71370  -0.70602  -0.65151  -0.64890
 Alpha  occ. eigenvalues --   -0.64032  -0.62233  -0.59815  -0.58303  -0.56452
 Alpha  occ. eigenvalues --   -0.55390  -0.54208  -0.53219  -0.52977  -0.51567
 Alpha  occ. eigenvalues --   -0.51331  -0.49017  -0.48969  -0.48868  -0.46831
 Alpha  occ. eigenvalues --   -0.45583  -0.45024  -0.44696  -0.44549  -0.42675
 Alpha  occ. eigenvalues --   -0.37473  -0.36487
 Alpha virt. eigenvalues --    0.04868   0.11168   0.16362   0.21277   0.23821
 Alpha virt. eigenvalues --    0.25409   0.27196   0.27600   0.28102   0.28524
 Alpha virt. eigenvalues --    0.29142   0.30907   0.32172   0.32675   0.32756

 Mulliken charges:
               1
     1  C   -0.297621
     2  C   -0.301818
     3  C   -0.469295
     4  H    0.145068
     5  H    0.144816
     6  H    0.147365
     7  H    0.167948
     8  H    0.147247
     9  H    0.142540
    10  H    0.173428
    11  C   -0.297652
    12  C   -0.298591
    13  C   -0.475068
    14  H    0.148732
    15  H    0.151097
    16  H    0.150199
    17  H    0.149524
    18  H    0.154679
    19  H    0.154759
    20  H    0.157402
    21  C   -0.170514
    22  C   -0.218580
    23  C   -0.170910
    24  C    0.157662
    25  C   -0.170603
    26  C   -0.218623
    27  H    0.226136
    28  H    0.224044
    29  H    0.276276
    30  H    0.275885
    31  H    0.223921
    32  N    0.491748
    33  O   -0.459533
    34  O   -0.461672
 Sum of Mulliken charges =  -0.00000

 Dipole moment (field-independent basis, Debye):
    X=             -4.6348    Y=             -1.1989    Z=             -2.6434  Tot=              5.4687
 Quadrupole moment (field-independent basis, Debye-Ang):
   XX=            -71.7075   YY=            -91.8086   ZZ=            -95.6876
   XY=              5.4223   XZ=              7.3339   YZ=             -1.8927

 Normal termination of Gaussian 16 at Thu May  6 06:00:32 2021.
