 Gaussian 16, Revision A.03,
 Gaussian 16:  EM64L-G16RevA.03 25-Dec-2016

 -------------
 #p 6-31g* mp2
 -------------

 ------------------------------------------------------
 Input file generated by CHIRIPA (05-May-2021 14:51:08)
 ------------------------------------------------------
 Symbolic Z-matrix:
 Charge =  0 Multiplicity = 1

                         Standard orientation:
 ---------------------------------------------------------------------
 Center     Atomic      Atomic             Coordinates (Angstroms)
 Number     Number       Type             X           Y           Z
 ---------------------------------------------------------------------
      1          6           0       -2.118611   -1.168639    0.585292
      2          6           0       -0.844568   -1.705425   -0.067902
      3          6           0        0.090463   -2.386619    0.931841
      4          1           0       -1.845566   -0.457816    1.377202
      5          1           0       -2.647040   -1.996920    1.077337
      6          1           0       -0.319408   -0.876624   -0.559748
      7          1           0       -1.120683   -2.414909   -0.858477
      8          1           0       -0.411220   -3.231583    1.414490
      9          1           0        0.394607   -1.684558    1.714917
     10          1           0        0.994847   -2.762889    0.443609
     11          6           0       -3.063446   -0.484880   -0.401363
     12          6           0       -4.337489    0.051905    0.251831
     13          6           0       -5.272520    0.733099   -0.747912
     14          1           0       -2.535017    0.343400   -0.893408
     15          1           0       -3.336491   -1.195704   -1.193273
     16          1           0       -4.061374    0.761389    1.042406
     17          1           0       -4.862648   -0.776895    0.743677
     18          1           0       -5.576664    0.031039   -1.530988
     19          1           0       -4.770837    1.578064   -1.230561
     20          1           0       -6.176904    1.109369   -0.259680
     21          6           0        2.131816    1.381382   -0.346819
     22          6           0        1.796616    2.427617    0.716675
     23          6           0        0.877101    3.530637    0.191668
     24          1           0        2.605563    1.878338   -1.204457
     25          1           0        1.199143    0.935917   -0.719745
     26          1           0        2.729721    2.869992    1.088474
     27          1           0        1.323786    1.928085    1.571963
     28          1           0       -0.068984    3.107835   -0.161547
     29          1           0        1.344938    4.055093   -0.647781
     30          1           0        0.650341    4.267746    0.968269
     31          6           0        3.050240    0.272138    0.162889
     32          6           0        3.385441   -0.774097   -0.900604
     33          6           0        4.304956   -1.877118   -0.375597
     34          1           0        3.982915    0.717603    0.535816
     35          1           0        2.576495   -0.224819    1.020528
     36          1           0        3.858270   -0.274567   -1.755891
     37          1           0        2.452336   -1.216474   -1.272403
     38          1           0        3.837119   -2.401574    0.463853
     39          1           0        5.251042   -1.454315   -0.022382
     40          1           0        4.531716   -2.614226   -1.152198
 ---------------------------------------------------------------------

 SCF Done:  E(RHF) =  -470.732757070     A.U. after   11 cycles
 E2 =    -0.1584844324D+01 EUMP2 =    -0.47231760139428D+03

 The electronic state is 1-A.
 Alpha  occ. eigenvalues --  -11.21676 -11.21644 -11.21641 -11.21575 -11.21473
 Alpha  occ. eigenvalues --  -11.21413 -11.21399 -11.21323 -11.21157 -11.21125
 Alpha  occ. eigenvalues --  -11.21096 -11.21059  -1.08526  -1.08412  -1.03613
 Alpha  occ. eigenvalues --   -1.03527  -0.96049  -0.95991  -0.87077  -0.86994
 Alpha  occ. eigenvalues --   -0.79674  -0.79606  -0.78380  -0.78178  -0.65441
 Alpha  occ. eigenvalues --   -0.64839  -0.61054  -0.60929  -0.59364  -0.59356
 Alpha  occ. eigenvalues --   -0.57654  -0.57590  -0.55475  -0.55143  -0.52729
 Alpha  occ. eigenvalues --   -0.52688  -0.52504  -0.52373  -0.50137  -0.49819
 Alpha  occ. eigenvalues --   -0.48018  -0.47891  -0.46874  -0.46642  -0.46058
 Alpha  occ. eigenvalues --   -0.45868  -0.45696  -0.45245  -0.43841  -0.43790
 Alpha virt. eigenvalues --    0.19138   0.22114   0.24017   0.24907   0.25078
 Alpha virt. eigenvalues --    0.26066   0.27005   0.27503   0.28628   0.29921
 Alpha virt. eigenvalues --    0.30496   0.31331   0.31699   0.31993   0.32386

 Mulliken charges:
               1
     1  C   -0.298167
     2  C   -0.308237
     3  C   -0.480451
     4  H    0.149494
     5  H    0.150021
     6  H    0.159146
     7  H    0.152562
     8  H    0.155820
     9  H    0.155555
    10  H    0.164531
    11  C   -0.298411
    12  C   -0.299751
    13  C   -0.475778
    14  H    0.148864
    15  H    0.150026
    16  H    0.152139
    17  H    0.152093
    18  H    0.155243
    19  H    0.155373
    20  H    0.160455
    21  C   -0.304659
    22  C   -0.299379
    23  C   -0.475661
    24  H    0.149964
    25  H    0.154516
    26  H    0.152401
    27  H    0.151064
    28  H    0.154212
    29  H    0.155595
    30  H    0.160445
    31  C   -0.301069
    32  C   -0.302708
    33  C   -0.477892
    34  H    0.149398
    35  H    0.154222
    36  H    0.151966
    37  H    0.154833
    38  H    0.156807
    39  H    0.155359
    40  H    0.160056
 Sum of Mulliken charges =  -0.00000

 Dipole moment (field-independent basis, Debye):
    X=             -0.0137    Y=             -0.0169    Z=              0.0039  Tot=              0.0221
 Quadrupole moment (field-independent basis, Debye-Ang):
   XX=            -84.9055   YY=            -84.6693   ZZ=            -85.1030
   XY=              1.8709   XZ=             -0.7359   YZ=              0.5103

 Normal termination of Gaussian 16 at Thu May  6 00:30:35 2021.
