 Gaussian 16, Revision A.03,
 Gaussian 16:  EM64L-G16RevA.03 25-Dec-2016

 -------------
 #p 6-31g* mp2
 -------------

 ------------------------------------------------------
 Input file generated by CHIRIPA (05-May-2021 14:51:08)
 ------------------------------------------------------
 Symbolic Z-matrix:
 Charge =  0 Multiplicity = 1

                         Standard orientation:
 ---------------------------------------------------------------------
 Center     Atomic      Atomic             Coordinates (Angstroms)
 Number     Number       Type             X           Y           Z
 ---------------------------------------------------------------------
      1          6           0        3.384741   -0.352478    0.135676
      2          6           0        3.150222   -1.506493   -0.839637
      3          6           0        3.524020   -2.865858   -0.247865
      4          1           0        4.441089   -0.344690    0.437362
      5          1           0        2.800092   -0.529047    1.049134
      6          1           0        3.734061   -1.327107   -1.751542
      7          1           0        2.094351   -1.511418   -1.139184
      8          1           0        2.932575   -3.070776    0.650357
      9          1           0        4.581601   -2.885418    0.034520
     10          1           0        3.348481   -3.676531   -0.961906
     11          6           0        3.015723    1.012974   -0.441465
     12          6           0        3.250242    2.166988    0.533849
     13          6           0        2.876443    3.526354   -0.057924
     14          1           0        3.600371    1.189543   -1.354922
     15          1           0        1.959375    1.005186   -0.743150
     16          1           0        4.306113    2.171913    0.833396
     17          1           0        2.666403    1.987603    1.445753
     18          1           0        1.818863    3.545914   -0.340309
     19          1           0        3.467889    3.731272   -0.956145
     20          1           0        3.051982    4.337027    0.656118
     21          6           0       -3.764170   -0.191425   -0.343225
     22          6           0       -4.955074    0.536889    0.280707
     23          6           0       -6.075126    0.807492   -0.724306
     24          1           0       -3.373242    0.406391   -1.177933
     25          1           0       -4.109081   -1.141652   -0.773922
     26          1           0       -4.607771    1.484820    0.711316
     27          1           0       -5.343092   -0.062639    1.114148
     28          1           0       -6.449398   -0.130979   -1.145961
     29          1           0       -5.709899    1.425272   -1.551082
     30          1           0       -6.916409    1.328870   -0.257114
     31          6           0       -2.636294   -0.469071    0.649014
     32          6           0       -1.445390   -1.197385    0.025081
     33          6           0       -0.325337   -1.467988    1.030094
     34          1           0       -2.291383    0.481156    1.079710
     35          1           0       -3.027222   -1.066887    1.483720
     36          1           0       -1.057372   -0.597856   -0.808359
     37          1           0       -1.792693   -2.145315   -0.405528
     38          1           0       -0.690564   -2.085768    1.856869
     39          1           0        0.048934   -0.529516    1.451750
     40          1           0        0.515945   -1.989367    0.562903
 ---------------------------------------------------------------------

 SCF Done:  E(RHF) =  -470.732648964     A.U. after   11 cycles
 E2 =    -0.1583984415D+01 EUMP2 =    -0.47231663337825D+03

 The electronic state is 1-A.
 Alpha  occ. eigenvalues --  -11.21683 -11.21632 -11.21603 -11.21563 -11.21456
 Alpha  occ. eigenvalues --  -11.21394 -11.21370 -11.21287 -11.21112 -11.21094
 Alpha  occ. eigenvalues --  -11.21083 -11.21069  -1.08495  -1.08398  -1.03616
 Alpha  occ. eigenvalues --   -1.03498  -0.96036  -0.95971  -0.87072  -0.86971
 Alpha  occ. eigenvalues --   -0.79653  -0.79585  -0.78304  -0.78206  -0.65236
 Alpha  occ. eigenvalues --   -0.64989  -0.61126  -0.60954  -0.59339  -0.59280
 Alpha  occ. eigenvalues --   -0.57619  -0.57580  -0.55434  -0.55148  -0.52706
 Alpha  occ. eigenvalues --   -0.52668  -0.52484  -0.52354  -0.50040  -0.49841
 Alpha  occ. eigenvalues --   -0.48012  -0.47846  -0.46711  -0.46601  -0.45856
 Alpha  occ. eigenvalues --   -0.45808  -0.45728  -0.45603  -0.43813  -0.43760
 Alpha virt. eigenvalues --    0.20011   0.23090   0.23583   0.24693   0.25898
 Alpha virt. eigenvalues --    0.26169   0.27005   0.27472   0.28074   0.29684
 Alpha virt. eigenvalues --    0.30623   0.31321   0.31637   0.31947   0.32080

 Mulliken charges:
               1
     1  C   -0.300097
     2  C   -0.304287
     3  C   -0.478389
     4  H    0.149270
     5  H    0.153908
     6  H    0.152895
     7  H    0.154049
     8  H    0.156659
     9  H    0.155786
    10  H    0.160202
    11  C   -0.299288
    12  C   -0.299804
    13  C   -0.475587
    14  H    0.149420
    15  H    0.150071
    16  H    0.152169
    17  H    0.151531
    18  H    0.154656
    19  H    0.155298
    20  H    0.160259
    21  C   -0.298325
    22  C   -0.299696
    23  C   -0.475743
    24  H    0.149685
    25  H    0.149692
    26  H    0.151973
    27  H    0.152021
    28  H    0.155247
    29  H    0.155258
    30  H    0.160377
    31  C   -0.298510
    32  C   -0.300897
    33  C   -0.484668
    34  H    0.149461
    35  H    0.150020
    36  H    0.152075
    37  H    0.152439
    38  H    0.155367
    39  H    0.155585
    40  H    0.169919
 Sum of Mulliken charges =  -0.00000

 Dipole moment (field-independent basis, Debye):
    X=             -0.0141    Y=             -0.0182    Z=              0.0101  Tot=              0.0252
 Quadrupole moment (field-independent basis, Debye-Ang):
   XX=            -84.5128   YY=            -85.1406   ZZ=            -85.0866
   XY=              0.9688   XZ=             -1.0061   YZ=              0.1901

 Normal termination of Gaussian 16 at Wed May  5 18:07:27 2021.
