 Gaussian 16, Revision A.03,
 Gaussian 16:  EM64L-G16RevA.03 25-Dec-2016

 -------------
 #p 6-31g* mp2
 -------------

 ------------------------------------------------------
 Input file generated by CHIRIPA (05-May-2021 14:57:26)
 ------------------------------------------------------
 Symbolic Z-matrix:
 Charge =  0 Multiplicity = 1

                         Standard orientation:
 ---------------------------------------------------------------------
 Center     Atomic      Atomic             Coordinates (Angstroms)
 Number     Number       Type             X           Y           Z
 ---------------------------------------------------------------------
      1          6           0        3.590684    2.551786    0.501840
      2          6           0        4.370996    1.809260   -0.390510
      3          6           0        4.108826    0.452690   -0.603899
      4          6           0        3.053814   -0.131965    0.094970
      5          6           0        2.258409    0.581124    0.990585
      6          6           0        2.538735    1.936433    1.188329
      7          1           0        3.801396    3.605112    0.661530
      8          1           0        5.188594    2.284520   -0.925024
      9          1           0        4.697069   -0.145715   -1.288953
     10          1           0        1.450140    0.079648    1.508891
     11          1           0        1.931074    2.510619    1.881945
     12          7           0        2.766656   -1.567437   -0.122654
     13          8           0        1.831488   -2.059122    0.505314
     14          8           0        3.482186   -2.173694   -0.917076
     15          6           0       -1.844681   -2.274620    0.149026
     16          6           0       -1.448463   -1.357578   -0.830037
     17          6           0       -2.137268   -0.152091   -0.994038
     18          6           0       -3.222612    0.105169   -0.157894
     19          6           0       -3.641648   -0.788332    0.826663
     20          6           0       -2.938082   -1.987577    0.972799
     21          1           0       -1.303868   -3.208647    0.269488
     22          1           0       -0.599687   -1.577843   -1.471214
     23          1           0       -1.851947    0.575650   -1.743973
     24          1           0       -4.491686   -0.540764    1.450814
     25          1           0       -3.248035   -2.697899    1.733994
     26          7           0       -3.959632    1.378060   -0.322058
     27          8           0       -4.912498    1.581069    0.427256
     28          8           0       -3.570488    2.148641   -1.196935
 ---------------------------------------------------------------------

 SCF Done:  E(RHF) =  -868.340360782     A.U. after   15 cycles
 E2 =    -0.2599217607D+01 EUMP2 =    -0.87093957838817D+03

 The electronic state is 1-A.
 Alpha  occ. eigenvalues --  -20.61659 -20.61629 -20.60532 -20.60527 -15.86664
 Alpha  occ. eigenvalues --  -15.85579 -11.31706 -11.30732 -11.28240 -11.28214
 Alpha  occ. eigenvalues --  -11.27898 -11.27301 -11.27262 -11.27173 -11.27138
 Alpha  occ. eigenvalues --  -11.26790 -11.26201 -11.26099  -1.60720  -1.59616
 Alpha  occ. eigenvalues --   -1.40278  -1.39175  -1.19847  -1.18868  -1.09301
 Alpha  occ. eigenvalues --   -1.08251  -1.05192  -1.04242  -0.96189  -0.95130
 Alpha  occ. eigenvalues --   -0.86604  -0.85612  -0.83029  -0.81984  -0.78115
 Alpha  occ. eigenvalues --   -0.77099  -0.72905  -0.72044  -0.71793  -0.70945
 Alpha  occ. eigenvalues --   -0.70935  -0.69850  -0.65497  -0.65181  -0.64486
 Alpha  occ. eigenvalues --   -0.64189  -0.62538  -0.61593  -0.55694  -0.54586
 Alpha  occ. eigenvalues --   -0.53549  -0.53273  -0.52585  -0.52300  -0.49667
 Alpha  occ. eigenvalues --   -0.49624  -0.48568  -0.48533  -0.45744  -0.44629
 Alpha  occ. eigenvalues --   -0.37809  -0.36788  -0.36745  -0.35863
 Alpha virt. eigenvalues --    0.04359   0.05431   0.10865   0.11807   0.15941
 Alpha virt. eigenvalues --    0.17012   0.21077   0.22126   0.27013   0.27756
 Alpha virt. eigenvalues --    0.27992   0.29079   0.30679   0.31686   0.32102

 Mulliken charges:
               1
     1  C   -0.169369
     2  C   -0.218640
     3  C   -0.171201
     4  C    0.155102
     5  C   -0.171244
     6  C   -0.218237
     7  H    0.228872
     8  H    0.225378
     9  H    0.275651
    10  H    0.276813
    11  H    0.227571
    12  N    0.487282
    13  O   -0.468177
    14  O   -0.458086
    15  C   -0.165915
    16  C   -0.217567
    17  C   -0.176392
    18  C    0.156040
    19  C   -0.173169
    20  C   -0.221777
    21  H    0.238620
    22  H    0.228672
    23  H    0.272183
    24  H    0.272921
    25  H    0.222432
    26  N    0.488034
    27  O   -0.462411
    28  O   -0.463385
 Sum of Mulliken charges =  -0.00000

 Dipole moment (field-independent basis, Debye):
    X=              3.9575    Y=              0.4962    Z=              1.3814  Tot=              4.2209
 Quadrupole moment (field-independent basis, Debye-Ang):
   XX=           -111.9481   YY=           -107.2683   ZZ=           -100.8323
   XY=             31.8120   XZ=             -5.3402   YZ=              0.4504

 Normal termination of Gaussian 16 at Thu May  6 13:10:31 2021.
