 Gaussian 16, Revision A.03,
 Gaussian 16:  EM64L-G16RevA.03 25-Dec-2016

 -------------
 #p 6-31g* mp2
 -------------

 ------------------------------------------------------
 Input file generated by CHIRIPA (05-May-2021 14:53:18)
 ------------------------------------------------------
 Symbolic Z-matrix:
 Charge =  0 Multiplicity = 1

                         Standard orientation:
 ---------------------------------------------------------------------
 Center     Atomic      Atomic             Coordinates (Angstroms)
 Number     Number       Type             X           Y           Z
 ---------------------------------------------------------------------
      1          6           0       -2.962793    0.921632   -0.227911
      2          6           0       -2.791904    2.093596    0.739189
      3          6           0       -1.739614    3.098697    0.269880
      4          1           0       -1.997038    0.412741   -0.351574
      5          1           0       -3.240672    1.309589   -1.217692
      6          1           0       -2.515781    1.703454    1.727198
      7          1           0       -3.758220    2.599640    0.860714
      8          1           0       -2.012770    3.515551   -0.704912
      9          1           0       -0.763271    2.614273    0.166496
     10          1           0       -1.633697    3.928213    0.975958
     11          6           0       -4.011346   -0.091698    0.227530
     12          6           0       -4.182236   -1.263662   -0.739570
     13          6           0       -5.234525   -2.268764   -0.270261
     14          1           0       -3.733467   -0.479655    1.217312
     15          1           0       -4.977101    0.417193    0.351194
     16          1           0       -3.215919   -1.769706   -0.861094
     17          1           0       -4.458359   -0.873521   -1.727579
     18          1           0       -6.210869   -1.784340   -0.166876
     19          1           0       -4.961370   -2.685617    0.704532
     20          1           0       -5.340442   -3.098280   -0.976338
     21          6           0        2.325353   -2.781774    0.408902
     22          6           0        3.618126   -2.316619    0.146434
     23          6           0        3.850875   -0.957057   -0.081528
     24          6           0        2.762839   -0.086603   -0.039368
     25          6           0        1.463254   -0.519416    0.219555
     26          6           0        1.253932   -1.883272    0.444563
     27          1           0        2.153648   -3.839582    0.584841
     28          1           0        4.452106   -3.012119    0.118126
     29          1           0        4.841493   -0.569920   -0.287000
     30          1           0        0.651931    0.198009    0.241312
     31          1           0        0.248878   -2.241684    0.648161
     32          7           0        2.996840    1.354977   -0.279137
     33          8           0        2.021368    2.101488   -0.236539
     34          8           0        4.151290    1.711082   -0.505126
 ---------------------------------------------------------------------

 SCF Done:  E(RHF) =  -669.535745407     A.U. after   15 cycles
 E2 =    -0.2092079955D+01 EUMP2 =    -0.67162782536109D+03

 The electronic state is 1-A.
 Alpha  occ. eigenvalues --  -20.60875 -20.60870 -15.85918 -11.31255 -11.27825
 Alpha  occ. eigenvalues --  -11.27818 -11.27561 -11.26835 -11.26825 -11.21995
 Alpha  occ. eigenvalues --  -11.21698 -11.21621 -11.21485 -11.21439 -11.20445
 Alpha  occ. eigenvalues --   -1.59942  -1.39498  -1.19426  -1.08826  -1.08637
 Alpha  occ. eigenvalues --   -1.04828  -1.03605  -0.96021  -0.95666  -0.87026
 Alpha  occ. eigenvalues --   -0.86228  -0.82502  -0.79679  -0.78442  -0.77546
 Alpha  occ. eigenvalues --   -0.72145  -0.71257  -0.70541  -0.65308  -0.65084
 Alpha  occ. eigenvalues --   -0.64827  -0.62190  -0.60993  -0.59438  -0.57625
 Alpha  occ. eigenvalues --   -0.55334  -0.55302  -0.53155  -0.52924  -0.52672
 Alpha  occ. eigenvalues --   -0.52426  -0.49990  -0.48891  -0.48881  -0.47947
 Alpha  occ. eigenvalues --   -0.46726  -0.45944  -0.45895  -0.44907  -0.43883
 Alpha  occ. eigenvalues --   -0.37405  -0.36427
 Alpha virt. eigenvalues --    0.04980   0.11221   0.16472   0.18931   0.22970
 Alpha virt. eigenvalues --    0.23309   0.25291   0.26955   0.27178   0.28232
 Alpha virt. eigenvalues --    0.29673   0.30536   0.31551   0.31693   0.31984

 Mulliken charges:
               1
     1  C   -0.298382
     2  C   -0.301057
     3  C   -0.486932
     4  H    0.139177
     5  H    0.153750
     6  H    0.148124
     7  H    0.152013
     8  H    0.154975
     9  H    0.176904
    10  H    0.161598
    11  C   -0.298242
    12  C   -0.298450
    13  C   -0.475679
    14  H    0.146346
    15  H    0.152654
    16  H    0.145110
    17  H    0.154854
    18  H    0.157445
    19  H    0.153338
    20  H    0.160445
    21  C   -0.170294
    22  C   -0.218908
    23  C   -0.170040
    24  C    0.157492
    25  C   -0.175871
    26  C   -0.221661
    27  H    0.225963
    28  H    0.223765
    29  H    0.275792
    30  H    0.285005
    31  H    0.223916
    32  N    0.493310
    33  O   -0.467064
    34  O   -0.459397
 Sum of Mulliken charges =  -0.00000

 Dipole moment (field-independent basis, Debye):
    X=             -0.7619    Y=             -4.9689    Z=              0.7998  Tot=              5.0902
 Quadrupole moment (field-independent basis, Debye-Ang):
   XX=            -94.2162   YY=            -94.3680   ZZ=            -95.4859
   XY=            -16.2129   XZ=              2.3747   YZ=              0.0582

 Normal termination of Gaussian 16 at Thu May  6 09:10:15 2021.
