 Gaussian 16, Revision A.03,
 Gaussian 16:  EM64L-G16RevA.03 25-Dec-2016

 -------------
 #p 6-31g* mp2
 -------------

 ------------------------------------------------------
 Input file generated by CHIRIPA (05-May-2021 14:57:20)
 ------------------------------------------------------
 Symbolic Z-matrix:
 Charge =  0 Multiplicity = 1

                         Standard orientation:
 ---------------------------------------------------------------------
 Center     Atomic      Atomic             Coordinates (Angstroms)
 Number     Number       Type             X           Y           Z
 ---------------------------------------------------------------------
      1          6           0       -3.065717   -2.375938    0.323222
      2          6           0       -2.073992   -1.596999   -0.281969
      3          6           0       -2.246007   -0.217405   -0.429202
      4          6           0       -3.427425    0.352895    0.042285
      5          6           0       -4.433937   -0.396350    0.649621
      6          6           0       -4.240454   -1.774188    0.786268
      7          1           0       -2.923753   -3.446958    0.433484
      8          1           0       -1.160659   -2.061622   -0.642515
      9          1           0       -1.494509    0.409299   -0.893864
     10          1           0       -5.333673    0.095305    0.999147
     11          1           0       -5.012345   -2.376641    1.256671
     12          7           0       -3.620893    1.812481   -0.107981
     13          8           0       -4.670774    2.290858    0.315745
     14          8           0       -2.718990    2.450489   -0.646639
     15          6           0        4.708840    1.893145    0.719845
     16          6           0        4.818533    0.674619    1.397846
     17          6           0        4.095550   -0.443149    0.970721
     18          6           0        3.268573   -0.306220   -0.143125
     19          6           0        3.138048    0.894225   -0.839676
     20          6           0        3.870426    1.998872   -0.394787
     21          1           0        5.274120    2.756358    1.058546
     22          1           0        5.468883    0.589589    2.263790
     23          1           0        4.161731   -1.398492    1.477039
     24          1           0        2.481602    0.948201   -1.699666
     25          1           0        3.783273    2.943937   -0.923278
     26          7           0        2.498211   -1.482607   -0.604706
     27          8           0        1.776521   -1.335980   -1.588729
     28          8           0        2.630678   -2.529009    0.026269
 ---------------------------------------------------------------------

 SCF Done:  E(RHF) =  -868.340953649     A.U. after   16 cycles
 E2 =    -0.2598344202D+01 EUMP2 =    -0.87093929785112D+03

 The electronic state is 1-A.
 Alpha  occ. eigenvalues --  -20.61628 -20.61602 -20.60348 -20.60339 -15.86624
 Alpha  occ. eigenvalues --  -15.85387 -11.31623 -11.30526 -11.28153 -11.28133
 Alpha  occ. eigenvalues --  -11.27812 -11.27089 -11.27087 -11.27045 -11.26968
 Alpha  occ. eigenvalues --  -11.26694 -11.26081 -11.25789  -1.60679  -1.59424
 Alpha  occ. eigenvalues --   -1.40239  -1.38984  -1.19759  -1.18651  -1.09223
 Alpha  occ. eigenvalues --   -1.08085  -1.05102  -1.03992  -0.96117  -0.94966
 Alpha  occ. eigenvalues --   -0.86519  -0.85400  -0.82961  -0.81788  -0.78050
 Alpha  occ. eigenvalues --   -0.76870  -0.72848  -0.71977  -0.71614  -0.70860
 Alpha  occ. eigenvalues --   -0.70742  -0.69755  -0.65412  -0.65098  -0.64286
 Alpha  occ. eigenvalues --   -0.63945  -0.62453  -0.61320  -0.55616  -0.54500
 Alpha  occ. eigenvalues --   -0.53453  -0.53186  -0.52372  -0.52044  -0.49622
 Alpha  occ. eigenvalues --   -0.49579  -0.48381  -0.48343  -0.45718  -0.44441
 Alpha  occ. eigenvalues --   -0.37715  -0.36684  -0.36629  -0.35600
 Alpha virt. eigenvalues --    0.04415   0.05613   0.10968   0.12049   0.15984
 Alpha virt. eigenvalues --    0.17179   0.21097   0.22339   0.26980   0.27622
 Alpha virt. eigenvalues --    0.28569   0.29051   0.30862   0.31916   0.32150

 Mulliken charges:
               1
     1  C   -0.171799
     2  C   -0.226647
     3  C   -0.174013
     4  C    0.158329
     5  C   -0.173179
     6  C   -0.218662
     7  H    0.226768
     8  H    0.246223
     9  H    0.274300
    10  H    0.272525
    11  H    0.220734
    12  N    0.488318
    13  O   -0.462504
    14  O   -0.464150
    15  C   -0.169351
    16  C   -0.218456
    17  C   -0.170558
    18  C    0.157372
    19  C   -0.170695
    20  C   -0.217582
    21  H    0.228280
    22  H    0.224900
    23  H    0.275206
    24  H    0.276096
    25  H    0.227756
    26  N    0.488334
    27  O   -0.468197
    28  O   -0.459347
 Sum of Mulliken charges =  -0.00000

 Dipole moment (field-independent basis, Debye):
    X=              3.8307    Y=             -1.0225    Z=              2.1599  Tot=              4.5149
 Quadrupole moment (field-independent basis, Debye-Ang):
   XX=            -87.8542   YY=           -110.2395   ZZ=           -102.6128
   XY=             30.8263   XZ=              2.9725   YZ=             -3.6224

 Normal termination of Gaussian 16 at Thu May  6 06:26:29 2021.
