 Gaussian 16, Revision A.03,
 Gaussian 16:  EM64L-G16RevA.03 25-Dec-2016

 -------------
 #p 6-31g* mp2
 -------------

 ------------------------------------------------------
 Input file generated by CHIRIPA (05-May-2021 14:51:11)
 ------------------------------------------------------
 Symbolic Z-matrix:
 Charge =  0 Multiplicity = 1

                         Standard orientation:
 ---------------------------------------------------------------------
 Center     Atomic      Atomic             Coordinates (Angstroms)
 Number     Number       Type             X           Y           Z
 ---------------------------------------------------------------------
      1          6           0       -3.773062    0.233190    0.033688
      2          6           0       -3.026171    1.564306    0.124621
      3          6           0       -1.510351    1.386539    0.216721
      4          1           0       -3.526929   -0.378838    0.912201
      5          1           0       -3.413991   -0.321523   -0.844239
      6          1           0       -3.387531    2.116949    1.001331
      7          1           0       -3.274261    2.173314   -0.754115
      8          1           0       -1.130396    0.857173   -0.663055
      9          1           0       -1.244309    0.800488    1.102366
     10          1           0       -0.996235    2.350610    0.280849
     11          6           0       -5.289356    0.394420   -0.058974
     12          6           0       -6.036247   -0.936696   -0.149907
     13          6           0       -7.552067   -0.758929   -0.242008
     14          1           0       -5.648427    0.949133    0.818953
     15          1           0       -5.535489    1.006448   -0.937487
     16          1           0       -5.788157   -1.545704    0.728829
     17          1           0       -5.674887   -1.489339   -1.026618
     18          1           0       -7.818109   -0.172878   -1.127652
     19          1           0       -7.932022   -0.229563    0.637768
     20          1           0       -8.066183   -1.723000   -0.306136
     21          6           0        5.266869   -0.519235    0.006747
     22          6           0        6.220722    0.649205   -0.244050
     23          6           0        7.688889    0.222354   -0.252959
     24          1           0        5.518994   -0.990578    0.966546
     25          1           0        5.422814   -1.283418   -0.767270
     26          1           0        6.062059    1.411572    0.529409
     27          1           0        5.966174    1.117939   -1.203273
     28          1           0        7.869082   -0.521446   -1.035834
     29          1           0        7.965510   -0.226144    0.706692
     30          1           0        8.353231    1.073101   -0.433896
     31          6           0        3.795549   -0.108375    0.018540
     32          6           0        2.841696   -1.276815    0.269336
     33          6           0        1.373530   -0.849964    0.278245
     34          1           0        3.639604    0.655807    0.792557
     35          1           0        3.543425    0.362967   -0.941259
     36          1           0        3.096243   -1.745550    1.228559
     37          1           0        3.000359   -2.039182   -0.504122
     38          1           0        1.096908   -0.401465   -0.681406
     39          1           0        1.193336   -0.106165    1.061121
     40          1           0        0.709188   -1.700712    0.459183
 ---------------------------------------------------------------------

 SCF Done:  E(RHF) =  -470.732620779     A.U. after   11 cycles
 E2 =    -0.1582645545D+01 EUMP2 =    -0.47231526632402D+03

 The electronic state is 1-A.
 Alpha  occ. eigenvalues --  -11.21574 -11.21573 -11.21515 -11.21510 -11.21361
 Alpha  occ. eigenvalues --  -11.21357 -11.21300 -11.21296 -11.21051 -11.21050
 Alpha  occ. eigenvalues --  -11.20941 -11.20918  -1.08389  -1.08369  -1.03511
 Alpha  occ. eigenvalues --   -1.03434  -0.96011  -0.95836  -0.87091  -0.86792
 Alpha  occ. eigenvalues --   -0.79692  -0.79388  -0.78228  -0.78148  -0.65035
 Alpha  occ. eigenvalues --   -0.64989  -0.60965  -0.60787  -0.59326  -0.59256
 Alpha  occ. eigenvalues --   -0.57661  -0.57425  -0.55392  -0.55041  -0.52833
 Alpha  occ. eigenvalues --   -0.52631  -0.52484  -0.51991  -0.50081  -0.49651
 Alpha  occ. eigenvalues --   -0.48083  -0.47589  -0.46704  -0.46426  -0.45827
 Alpha  occ. eigenvalues --   -0.45693  -0.45617  -0.45592  -0.43733  -0.43717
 Alpha virt. eigenvalues --    0.22564   0.23006   0.23645   0.24768   0.26130
 Alpha virt. eigenvalues --    0.26326   0.26923   0.27567   0.27726   0.29355
 Alpha virt. eigenvalues --    0.29578   0.31281   0.31824   0.32059   0.32310

 Mulliken charges:
               1
     1  C   -0.298009
     2  C   -0.300616
     3  C   -0.475910
     4  H    0.149490
     5  H    0.149335
     6  H    0.151195
     7  H    0.151210
     8  H    0.157759
     9  H    0.157135
    10  H    0.158855
    11  C   -0.298170
    12  C   -0.299583
    13  C   -0.475665
    14  H    0.149402
    15  H    0.149510
    16  H    0.151846
    17  H    0.151831
    18  H    0.155121
    19  H    0.155131
    20  H    0.160130
    21  C   -0.298166
    22  C   -0.299588
    23  C   -0.475669
    24  H    0.149528
    25  H    0.149391
    26  H    0.151868
    27  H    0.151857
    28  H    0.155122
    29  H    0.155127
    30  H    0.160146
    31  C   -0.298095
    32  C   -0.301006
    33  C   -0.474684
    34  H    0.149472
    35  H    0.149445
    36  H    0.151268
    37  H    0.151222
    38  H    0.155974
    39  H    0.157538
    40  H    0.159252
 Sum of Mulliken charges =  -0.00000

 Dipole moment (field-independent basis, Debye):
    X=              0.0035    Y=              0.0024    Z=              0.0038  Tot=              0.0057
 Quadrupole moment (field-independent basis, Debye-Ang):
   XX=            -87.5943   YY=            -84.8971   ZZ=            -82.6868
   XY=              0.2284   XZ=             -0.0509   YZ=              0.1342

 Normal termination of Gaussian 16 at Wed May  5 15:13:55 2021.
