 Gaussian 16, Revision A.03,
 Gaussian 16:  EM64L-G16RevA.03 25-Dec-2016

 -------------
 #p 6-31g* mp2
 -------------

 ------------------------------------------------------
 Input file generated by CHIRIPA (05-May-2021 14:57:25)
 ------------------------------------------------------
 Symbolic Z-matrix:
 Charge =  0 Multiplicity = 1

                         Standard orientation:
 ---------------------------------------------------------------------
 Center     Atomic      Atomic             Coordinates (Angstroms)
 Number     Number       Type             X           Y           Z
 ---------------------------------------------------------------------
      1          6           0        2.079056    2.595481   -0.353452
      2          6           0        1.328591    1.450095   -0.638784
      3          6           0        1.866828    0.177426   -0.426266
      4          6           0        3.164468    0.086559    0.074896
      5          6           0        3.937250    1.208897    0.368928
      6          6           0        3.378699    2.471445    0.148608
      7          1           0        1.653050    3.580190   -0.521571
      8          1           0        0.319015    1.543397   -1.028778
      9          1           0        1.307969   -0.725916   -0.638558
     10          1           0        4.940943    1.084008    0.756771
     11          1           0        3.963839    3.359225    0.371103
     12          7           0        3.745027   -1.255401    0.304009
     13          8           0        4.890532   -1.308539    0.746313
     14          8           0        3.043573   -2.228682    0.036945
     15          6           0       -4.283503    1.806849    0.610115
     16          6           0       -3.506857    1.773705   -0.552744
     17          6           0       -2.829442    0.607533   -0.921119
     18          6           0       -2.951349   -0.512160   -0.099710
     19          6           0       -3.717428   -0.510483    1.064941
     20          6           0       -4.386129    0.666660    1.413829
     21          1           0       -4.806350    2.717021    0.888709
     22          1           0       -3.425338    2.657684   -1.178829
     23          1           0       -2.221382    0.554217   -1.816016
     24          1           0       -3.779532   -1.407566    1.668929
     25          1           0       -4.988570    0.689501    2.317482
     26          7           0       -2.238814   -1.752541   -0.479378
     27          8           0       -2.362389   -2.725576    0.261277
     28          8           0       -1.570245   -1.728230   -1.510426
 ---------------------------------------------------------------------

 SCF Done:  E(RHF) =  -868.337634415     A.U. after   16 cycles
 E2 =    -0.2600556621D+01 EUMP2 =    -0.87093819103577D+03

 The electronic state is 1-A.
 Alpha  occ. eigenvalues --  -20.61450 -20.61385 -20.60234 -20.60189 -15.86450
 Alpha  occ. eigenvalues --  -15.85270 -11.31896 -11.30754 -11.28532 -11.28390
 Alpha  occ. eigenvalues --  -11.28167 -11.27536 -11.27421 -11.27409 -11.27244
 Alpha  occ. eigenvalues --  -11.27232 -11.26466 -11.26439  -1.60472  -1.59293
 Alpha  occ. eigenvalues --   -1.40028  -1.38838  -1.20060  -1.18973  -1.09429
 Alpha  occ. eigenvalues --   -1.08368  -1.05478  -1.04390  -0.96255  -0.95164
 Alpha  occ. eigenvalues --   -0.86865  -0.85795  -0.83087  -0.81989  -0.78142
 Alpha  occ. eigenvalues --   -0.76991  -0.72651  -0.71801  -0.71481  -0.71153
 Alpha  occ. eigenvalues --   -0.70623  -0.70092  -0.65708  -0.65473  -0.64629
 Alpha  occ. eigenvalues --   -0.64427  -0.62828  -0.61701  -0.55941  -0.54949
 Alpha  occ. eigenvalues --   -0.53801  -0.53564  -0.52731  -0.52467  -0.49427
 Alpha  occ. eigenvalues --   -0.49402  -0.48271  -0.48223  -0.45400  -0.44216
 Alpha  occ. eigenvalues --   -0.38018  -0.37094  -0.36996  -0.35996
 Alpha virt. eigenvalues --    0.04334   0.05532   0.10483   0.11644   0.15827
 Alpha virt. eigenvalues --    0.16966   0.20019   0.21909   0.25417   0.27159
 Alpha virt. eigenvalues --    0.28537   0.28778   0.30494   0.30952   0.32694

 Mulliken charges:
               1
     1  C   -0.171669
     2  C   -0.220293
     3  C   -0.177003
     4  C    0.158052
     5  C   -0.170825
     6  C   -0.219242
     7  H    0.220709
     8  H    0.216690
     9  H    0.291524
    10  H    0.274682
    11  H    0.221122
    12  N    0.487117
    13  O   -0.463838
    14  O   -0.453213
    15  C   -0.170450
    16  C   -0.219188
    17  C   -0.178143
    18  C    0.160113
    19  C   -0.169599
    20  C   -0.217320
    21  H    0.227575
    22  H    0.222680
    23  H    0.271969
    24  H    0.279254
    25  H    0.226705
    26  N    0.487490
    27  O   -0.450534
    28  O   -0.464365
 Sum of Mulliken charges =  -0.00000

 Dipole moment (field-independent basis, Debye):
    X=             -4.8696    Y=              8.7768    Z=              0.6780  Tot=             10.0600
 Quadrupole moment (field-independent basis, Debye-Ang):
   XX=            -98.9790   YY=           -107.4965   ZZ=           -102.4336
   XY=              5.9388   XZ=             -7.2000   YZ=             -2.1224

 Normal termination of Gaussian 16 at Thu May  6 00:20:51 2021.
