 Gaussian 16, Revision A.03,
 Gaussian 16:  EM64L-G16RevA.03 25-Dec-2016

 -------------
 #p 6-31g* mp2
 -------------

 ------------------------------------------------------
 Input file generated by CHIRIPA (05-May-2021 14:53:16)
 ------------------------------------------------------
 Symbolic Z-matrix:
 Charge =  0 Multiplicity = 1

                         Standard orientation:
 ---------------------------------------------------------------------
 Center     Atomic      Atomic             Coordinates (Angstroms)
 Number     Number       Type             X           Y           Z
 ---------------------------------------------------------------------
      1          6           0        2.935614    0.985313   -0.215280
      2          6           0        3.628296    2.240827    0.315628
      3          6           0        2.737177    3.481393    0.247092
      4          1           0        2.624127    1.157816   -1.254589
      5          1           0        2.016836    0.810252    0.361430
      6          1           0        4.546215    2.412685   -0.261005
      7          1           0        3.938341    2.065247    1.353732
      8          1           0        1.826939    3.334973    0.837539
      9          1           0        2.438267    3.684385   -0.786372
     10          1           0        3.252117    4.367325    0.631566
     11          6           0        3.813775   -0.263175   -0.153326
     12          6           0        3.121093   -1.518688   -0.684234
     13          6           0        4.012212   -2.759255   -0.615698
     14          1           0        4.732554   -0.088114   -0.730036
     15          1           0        4.125262   -0.435678    0.885983
     16          1           0        2.811049   -1.343109   -1.722338
     17          1           0        2.203174   -1.690547   -0.107601
     18          1           0        4.311122   -2.962247    0.417766
     19          1           0        4.922450   -2.612835   -1.206146
     20          1           0        3.497272   -3.645187   -1.000173
     21          6           0       -1.000258   -1.415206    1.694708
     22          6           0       -0.906685   -1.612257    0.313065
     23          6           0       -1.807866   -0.989478   -0.555595
     24          6           0       -2.794664   -0.172539   -0.005931
     25          6           0       -2.913766    0.043500    1.366086
     26          6           0       -2.001735   -0.589413    2.215890
     27          1           0       -0.295984   -1.902932    2.362180
     28          1           0       -0.129942   -2.253040   -0.094503
     29          1           0       -1.758253   -1.124633   -1.629228
     30          1           0       -3.698780    0.687936    1.742747
     31          1           0       -2.076797   -0.434559    3.288471
     32          7           0       -3.754448    0.492133   -0.915561
     33          8           0       -4.614770    1.207069   -0.406297
     34          8           0       -3.628231    0.285581   -2.120568
 ---------------------------------------------------------------------

 SCF Done:  E(RHF) =  -669.535512926     A.U. after   15 cycles
 E2 =    -0.2091698818D+01 EUMP2 =    -0.67162721174430D+03

 The electronic state is 1-A.
 Alpha  occ. eigenvalues --  -20.60771 -20.60766 -15.85825 -11.31204 -11.27774
 Alpha  occ. eigenvalues --  -11.27764 -11.27534 -11.26797 -11.26767 -11.22432
 Alpha  occ. eigenvalues --  -11.21980 -11.21934 -11.21819 -11.21782 -11.21285
 Alpha  occ. eigenvalues --   -1.59846  -1.39399  -1.19379  -1.08973  -1.08773
 Alpha  occ. eigenvalues --   -1.04782  -1.04065  -0.96484  -0.95606  -0.87501
 Alpha  occ. eigenvalues --   -0.86184  -0.82436  -0.80165  -0.78761  -0.77474
 Alpha  occ. eigenvalues --   -0.72044  -0.71169  -0.70489  -0.65644  -0.65031
 Alpha  occ. eigenvalues --   -0.64777  -0.62161  -0.61438  -0.59876  -0.58097
 Alpha  occ. eigenvalues --   -0.55761  -0.55289  -0.53218  -0.53097  -0.52950
 Alpha  occ. eigenvalues --   -0.52832  -0.50421  -0.48816  -0.48797  -0.48437
 Alpha  occ. eigenvalues --   -0.47195  -0.46290  -0.46204  -0.44801  -0.44304
 Alpha  occ. eigenvalues --   -0.37356  -0.36365
 Alpha virt. eigenvalues --    0.05055   0.11141   0.16532   0.20340   0.22626
 Alpha virt. eigenvalues --    0.23810   0.25632   0.26371   0.27331   0.28147
 Alpha virt. eigenvalues --    0.28562   0.30326   0.31004   0.31519   0.31896

 Mulliken charges:
               1
     1  C   -0.300355
     2  C   -0.299998
     3  C   -0.476020
     4  H    0.151711
     5  H    0.150285
     6  H    0.152875
     7  H    0.150678
     8  H    0.155529
     9  H    0.157580
    10  H    0.161111
    11  C   -0.297858
    12  C   -0.303726
    13  C   -0.475931
    14  H    0.152425
    15  H    0.148667
    16  H    0.154234
    17  H    0.143456
    18  H    0.155058
    19  H    0.159590
    20  H    0.158678
    21  C   -0.172976
    22  C   -0.218765
    23  C   -0.171663
    24  C    0.158667
    25  C   -0.170980
    26  C   -0.218608
    27  H    0.225487
    28  H    0.228262
    29  H    0.276006
    30  H    0.275707
    31  H    0.223439
    32  N    0.488077
    33  O   -0.460383
    34  O   -0.460261
 Sum of Mulliken charges =  -0.00000

 Dipole moment (field-independent basis, Debye):
    X=              3.4485    Y=             -2.2679    Z=              3.1625  Tot=              5.1997
 Quadrupole moment (field-independent basis, Debye-Ang):
   XX=           -113.1007   YY=            -94.5833   ZZ=            -91.0030
   XY=              5.5524   XZ=            -11.5819   YZ=              1.1407

 Normal termination of Gaussian 16 at Wed May  5 20:20:25 2021.
