 Gaussian 16, Revision A.03,
 Gaussian 16:  EM64L-G16RevA.03 25-Dec-2016

 -------------
 #p 6-31g* mp2
 -------------

 ------------------------------------------------------
 Input file generated by CHIRIPA (05-May-2021 14:57:21)
 ------------------------------------------------------
 Symbolic Z-matrix:
 Charge =  0 Multiplicity = 1

                         Standard orientation:
 ---------------------------------------------------------------------
 Center     Atomic      Atomic             Coordinates (Angstroms)
 Number     Number       Type             X           Y           Z
 ---------------------------------------------------------------------
      1          6           0        4.824083    2.288700    0.088680
      2          6           0        3.446612    2.165327    0.298144
      3          6           0        2.825904    0.914992    0.221128
      4          6           0        3.616568   -0.195942   -0.068644
      5          6           0        4.991132   -0.105412   -0.282340
      6          6           0        5.590595    1.154935   -0.200384
      7          1           0        5.298011    3.263879    0.150428
      8          1           0        2.848834    3.044097    0.522799
      9          1           0        1.761416    0.790901    0.378874
     10          1           0        5.560745   -0.999603   -0.504563
     11          1           0        6.660556    1.247753   -0.363519
     12          7           0        2.970698   -1.524916   -0.152793
     13          8           0        3.689462   -2.488293   -0.409538
     14          8           0        1.757930   -1.578023    0.039590
     15          6           0       -5.457911    1.754111   -0.389767
     16          6           0       -4.151034    2.120642   -0.051760
     17          6           0       -3.181574    1.144441    0.196681
     18          6           0       -3.555291   -0.194901    0.097752
     19          6           0       -4.849033   -0.591787   -0.236920
     20          6           0       -5.802133    0.401451   -0.481107
     21          1           0       -6.204656    2.519066   -0.581109
     22          1           0       -3.880863    3.170365    0.019909
     23          1           0       -2.162481    1.400226    0.460201
     24          1           0       -5.088374   -1.646336   -0.300640
     25          1           0       -6.816299    0.113866   -0.743413
     26          7           0       -2.537627   -1.237381    0.358514
     27          8           0       -2.892183   -2.410476    0.264836
     28          8           0       -1.404695   -0.861642    0.651638
 ---------------------------------------------------------------------

 SCF Done:  E(RHF) =  -868.335041062     A.U. after   16 cycles
 E2 =    -0.2600635178D+01 EUMP2 =    -0.87093567623987D+03

 The electronic state is 1-A.
 Alpha  occ. eigenvalues --  -20.60190 -20.60148 -20.59745 -20.59631 -15.85235
 Alpha  occ. eigenvalues --  -15.84739 -11.30927 -11.30501 -11.27583 -11.27500
 Alpha  occ. eigenvalues --  -11.27320 -11.27143 -11.27089 -11.26975 -11.26644
 Alpha  occ. eigenvalues --  -11.26586 -11.26251 -11.26235  -1.59231  -1.58780
 Alpha  occ. eigenvalues --   -1.38783  -1.38310  -1.19125  -1.18725  -1.08453
 Alpha  occ. eigenvalues --   -1.08055  -1.04582  -1.04186  -0.95236  -0.94812
 Alpha  occ. eigenvalues --   -0.85964  -0.85564  -0.82078  -0.81628  -0.77081
 Alpha  occ. eigenvalues --   -0.76601  -0.71485  -0.70874  -0.70564  -0.70234
 Alpha  occ. eigenvalues --   -0.70131  -0.69826  -0.64772  -0.64590  -0.64358
 Alpha  occ. eigenvalues --   -0.64202  -0.61937  -0.61520  -0.55063  -0.54689
 Alpha  occ. eigenvalues --   -0.52884  -0.52684  -0.52499  -0.52285  -0.48210
 Alpha  occ. eigenvalues --   -0.48185  -0.47745  -0.47664  -0.44115  -0.43629
 Alpha  occ. eigenvalues --   -0.37113  -0.36739  -0.36199  -0.35810
 Alpha virt. eigenvalues --    0.05477   0.05921   0.11452   0.11841   0.16912
 Alpha virt. eigenvalues --    0.17334   0.21280   0.21983   0.26770   0.27702
 Alpha virt. eigenvalues --    0.28169   0.29142   0.30648   0.31609   0.32289

 Mulliken charges:
               1
     1  C   -0.171830
     2  C   -0.218867
     3  C   -0.173408
     4  C    0.157943
     5  C   -0.171438
     6  C   -0.218849
     7  H    0.222333
     8  H    0.218286
     9  H    0.282947
    10  H    0.274845
    11  H    0.221085
    12  N    0.486509
    13  O   -0.466801
    14  O   -0.443672
    15  C   -0.171742
    16  C   -0.218011
    17  C   -0.170361
    18  C    0.160151
    19  C   -0.170956
    20  C   -0.218193
    21  H    0.224235
    22  H    0.220242
    23  H    0.269123
    24  H    0.276674
    25  H    0.223001
    26  N    0.488973
    27  O   -0.458161
    28  O   -0.454059
 Sum of Mulliken charges =  -0.00000

 Dipole moment (field-independent basis, Debye):
    X=             -1.5061    Y=              8.0828    Z=             -0.5861  Tot=              8.2428
 Quadrupole moment (field-independent basis, Debye-Ang):
   XX=            -58.8205   YY=           -105.9661   ZZ=           -106.4630
   XY=              4.9022   XZ=              3.6545   YZ=              1.2965

 Normal termination of Gaussian 16 at Thu May  6 21:02:34 2021.
