 Gaussian 16, Revision A.03,
 Gaussian 16:  EM64L-G16RevA.03 25-Dec-2016

 -------------
 #p 6-31g* mp2
 -------------

 ------------------------------------------------------
 Input file generated by CHIRIPA (05-May-2021 14:57:22)
 ------------------------------------------------------
 Symbolic Z-matrix:
 Charge =  0 Multiplicity = 1

                         Standard orientation:
 ---------------------------------------------------------------------
 Center     Atomic      Atomic             Coordinates (Angstroms)
 Number     Number       Type             X           Y           Z
 ---------------------------------------------------------------------
      1          6           0        1.050420    1.672275   -1.391195
      2          6           0        2.342343    2.091523   -1.056999
      3          6           0        3.254318    1.197125   -0.488755
      4          6           0        2.838988   -0.115059   -0.267473
      5          6           0        1.558785   -0.562966   -0.589575
      6          6           0        0.663447    0.348702   -1.156830
      7          1           0        0.348438    2.373773   -1.832237
      8          1           0        2.645626    3.118824   -1.237880
      9          1           0        4.260633    1.495045   -0.220442
     10          1           0        1.285480   -1.593389   -0.397352
     11          1           0       -0.339233    0.020315   -1.415366
     12          7           0        3.795649   -1.071059    0.333578
     13          8           0        3.405242   -2.221726    0.518470
     14          8           0        4.917773   -0.651604    0.608408
     15          6           0       -1.656121    1.476047    2.101151
     16          6           0       -1.633120    0.089393    2.283307
     17          6           0       -2.198121   -0.761579    1.328754
     18          6           0       -2.780431   -0.189310    0.198838
     19          6           0       -2.819075    1.188253   -0.011204
     20          6           0       -2.247981    2.020093    0.956496
     21          1           0       -1.214848    2.129671    2.847778
     22          1           0       -1.174156   -0.335915    3.171287
     23          1           0       -2.194191   -1.838606    1.444575
     24          1           0       -3.283781    1.582767   -0.906650
     25          1           0       -2.267298    3.096618    0.812391
     26          7           0       -3.381798   -1.080068   -0.818664
     27          8           0       -3.888746   -0.551031   -1.805456
     28          8           0       -3.334813   -2.290415   -0.610122
 ---------------------------------------------------------------------

 SCF Done:  E(RHF) =  -868.337025637     A.U. after   16 cycles
 E2 =    -0.2603022571D+01 EUMP2 =    -0.87094004820820D+03

 The electronic state is 1-A.
 Alpha  occ. eigenvalues --  -20.61633 -20.61622 -20.60927 -20.60921 -15.86680
 Alpha  occ. eigenvalues --  -15.85977 -11.32024 -11.31313 -11.28623 -11.28542
 Alpha  occ. eigenvalues --  -11.28254 -11.27886 -11.27820 -11.27620 -11.27612
 Alpha  occ. eigenvalues --  -11.27506 -11.26925 -11.26788  -1.60721  -1.60005
 Alpha  occ. eigenvalues --   -1.40266  -1.39558  -1.20215  -1.19475  -1.09585
 Alpha  occ. eigenvalues --   -1.08884  -1.05587  -1.04867  -0.96418  -0.95723
 Alpha  occ. eigenvalues --   -0.86979  -0.86274  -0.83238  -0.82552  -0.78305
 Alpha  occ. eigenvalues --   -0.77609  -0.72874  -0.72198  -0.72091  -0.71332
 Alpha  occ. eigenvalues --   -0.71254  -0.70599  -0.65831  -0.65554  -0.65126
 Alpha  occ. eigenvalues --   -0.64894  -0.62920  -0.62241  -0.56030  -0.55405
 Alpha  occ. eigenvalues --   -0.54219  -0.53649  -0.53102  -0.52736  -0.49650
 Alpha  occ. eigenvalues --   -0.49634  -0.48952  -0.48950  -0.45656  -0.44970
 Alpha  occ. eigenvalues --   -0.38154  -0.37659  -0.36989  -0.36428
 Alpha virt. eigenvalues --    0.04166   0.04913   0.10394   0.11172   0.15659
 Alpha virt. eigenvalues --    0.16448   0.20531   0.21338   0.26334   0.26790
 Alpha virt. eigenvalues --    0.27653   0.28378   0.30085   0.31021   0.31652

 Mulliken charges:
               1
     1  C   -0.172555
     2  C   -0.220038
     3  C   -0.172592
     4  C    0.157584
     5  C   -0.174259
     6  C   -0.211718
     7  H    0.222181
     8  H    0.221787
     9  H    0.274825
    10  H    0.276446
    11  H    0.227038
    12  N    0.487777
    13  O   -0.460247
    14  O   -0.460950
    15  C   -0.167428
    16  C   -0.215217
    17  C   -0.174136
    18  C    0.150654
    19  C   -0.180929
    20  C   -0.215574
    21  H    0.229560
    22  H    0.230038
    23  H    0.279411
    24  H    0.274638
    25  H    0.223502
    26  N    0.487295
    27  O   -0.460616
    28  O   -0.456477
 Sum of Mulliken charges =  -0.00000

 Dipole moment (field-independent basis, Debye):
    X=             -1.3726    Y=              6.4561    Z=              1.7034  Tot=              6.8166
 Quadrupole moment (field-independent basis, Debye-Ang):
   XX=           -134.5384   YY=           -101.4888   ZZ=           -101.5232
   XY=              2.5502   XZ=            -14.0943   YZ=             -2.8849

 Normal termination of Gaussian 16 at Wed May  5 16:17:06 2021.
