 Gaussian 16, Revision A.03,
 Gaussian 16:  EM64L-G16RevA.03 25-Dec-2016

 -------------
 #p 6-31g* mp2
 -------------

 ------------------------------------------------------
 Input file generated by CHIRIPA (05-May-2021 14:57:26)
 ------------------------------------------------------
 Symbolic Z-matrix:
 Charge =  0 Multiplicity = 1

                         Standard orientation:
 ---------------------------------------------------------------------
 Center     Atomic      Atomic             Coordinates (Angstroms)
 Number     Number       Type             X           Y           Z
 ---------------------------------------------------------------------
      1          6           0       -6.220060   -0.126310   -0.383853
      2          6           0       -5.752487   -0.442048    0.896071
      3          6           0       -4.381552   -0.446627    1.170051
      4          6           0       -3.502315   -0.129196    0.135900
      5          6           0       -3.937260    0.189632   -1.149581
      6          6           0       -5.312554    0.187968   -1.400801
      7          1           0       -7.286728   -0.125177   -0.587847
      8          1           0       -6.454962   -0.686519    1.687783
      9          1           0       -3.992299   -0.687312    2.151872
     10          1           0       -3.212699    0.429133   -1.918391
     11          1           0       -5.672819    0.433568   -2.395756
     12          7           0       -2.048660   -0.130739    0.413903
     13          8           0       -1.294566    0.152464   -0.514415
     14          8           0       -1.690905   -0.415123    1.554856
     15          6           0        5.045602   -2.028903   -0.189976
     16          6           0        5.658539   -0.861746    0.277546
     17          6           0        4.945831    0.339516    0.337254
     18          6           0        3.615857    0.337554   -0.080424
     19          6           0        2.977245   -0.808723   -0.551077
     20          6           0        3.709268   -1.998719   -0.602069
     21          1           0        5.606753   -2.957696   -0.232974
     22          1           0        6.696219   -0.882224    0.598238
     23          1           0        5.395702    1.257727    0.694915
     24          1           0        1.941422   -0.757089   -0.863840
     25          1           0        3.230670   -2.903614   -0.965601
     26          7           0        2.851121    1.603313   -0.021827
     27          8           0        1.680605    1.575226   -0.395645
     28          8           0        3.436719    2.599534    0.396808
 ---------------------------------------------------------------------

 SCF Done:  E(RHF) =  -868.336998361     A.U. after   16 cycles
 E2 =    -0.2600052007D+01 EUMP2 =    -0.87093705036731D+03

 The electronic state is 1-A.
 Alpha  occ. eigenvalues --  -20.60404 -20.60335 -20.59448 -20.59328 -15.85409
 Alpha  occ. eigenvalues --  -15.84437 -11.30896 -11.30017 -11.27487 -11.27467
 Alpha  occ. eigenvalues --  -11.27254 -11.26702 -11.26530 -11.26515 -11.26513
 Alpha  occ. eigenvalues --  -11.26497 -11.25769 -11.25689  -1.59430  -1.58478
 Alpha  occ. eigenvalues --   -1.38981  -1.38011  -1.19081  -1.18238  -1.08455
 Alpha  occ. eigenvalues --   -1.07613  -1.04502  -1.03671  -0.95268  -0.94397
 Alpha  occ. eigenvalues --   -0.85895  -0.85061  -0.82100  -0.81215  -0.77128
 Alpha  occ. eigenvalues --   -0.76207  -0.71635  -0.70777  -0.70601  -0.70192
 Alpha  occ. eigenvalues --   -0.69810  -0.69355  -0.64732  -0.64508  -0.63887
 Alpha  occ. eigenvalues --   -0.63693  -0.61847  -0.60994  -0.55005  -0.54210
 Alpha  occ. eigenvalues --   -0.52826  -0.52597  -0.52004  -0.51768  -0.48409
 Alpha  occ. eigenvalues --   -0.48380  -0.47474  -0.47338  -0.44355  -0.43362
 Alpha  occ. eigenvalues --   -0.37072  -0.36267  -0.36111  -0.35286
 Alpha virt. eigenvalues --    0.05405   0.06317   0.11541   0.12364   0.16868
 Alpha virt. eigenvalues --    0.17740   0.21650   0.22424   0.27557   0.28293
 Alpha virt. eigenvalues --    0.28559   0.29388   0.31195   0.31909   0.32797

 Mulliken charges:
               1
     1  C   -0.171201
     2  C   -0.218612
     3  C   -0.171116
     4  C    0.158571
     5  C   -0.170922
     6  C   -0.218622
     7  H    0.224588
     8  H    0.222426
     9  H    0.275047
    10  H    0.276830
    11  H    0.222844
    12  N    0.488307
    13  O   -0.453380
    14  O   -0.462488
    15  C   -0.171553
    16  C   -0.219507
    17  C   -0.171748
    18  C    0.156735
    19  C   -0.171700
    20  C   -0.219902
    21  H    0.221156
    22  H    0.219105
    23  H    0.272680
    24  H    0.290869
    25  H    0.220545
    26  N    0.486740
    27  O   -0.445734
    28  O   -0.469957
 Sum of Mulliken charges =  -0.00000

 Dipole moment (field-independent basis, Debye):
    X=             -2.7679    Y=             -4.3775    Z=             -1.2699  Tot=              5.3326
 Quadrupole moment (field-independent basis, Debye-Ang):
   XX=            -49.4979   YY=           -108.2586   ZZ=           -100.7846
   XY=            -12.4056   XZ=              2.5057   YZ=             -0.1206

 Normal termination of Gaussian 16 at Fri May  7 01:59:20 2021.
