 Gaussian 16, Revision A.03,
 Gaussian 16:  EM64L-G16RevA.03 25-Dec-2016

 -------------
 #p 6-31g* mp2
 -------------

 ------------------------------------------------------
 Input file generated by CHIRIPA (05-May-2021 14:51:13)
 ------------------------------------------------------
 Symbolic Z-matrix:
 Charge =  0 Multiplicity = 1

                         Standard orientation:
 ---------------------------------------------------------------------
 Center     Atomic      Atomic             Coordinates (Angstroms)
 Number     Number       Type             X           Y           Z
 ---------------------------------------------------------------------
      1          6           0       -3.309306   -0.196410    0.353694
      2          6           0       -2.469548    1.078707    0.270813
      3          6           0       -1.022922    0.863862    0.716806
      4          1           0       -3.294273   -0.571280    1.386259
      5          1           0       -2.844631   -0.974201   -0.268007
      6          1           0       -2.936425    1.854288    0.891390
      7          1           0       -2.486738    1.450691   -0.761635
      8          1           0       -0.535068    0.109132    0.091521
      9          1           0       -0.987309    0.515022    1.753938
     10          1           0       -0.440603    1.788114    0.649557
     11          6           0       -4.757869    0.002351   -0.088899
     12          6           0       -5.597627   -1.272765   -0.006018
     13          6           0       -7.044252   -1.057920   -0.452011
     14          1           0       -5.222543    0.780143    0.532802
     15          1           0       -4.772901    0.377222   -1.121465
     16          1           0       -5.580436   -1.644749    1.026430
     17          1           0       -5.130750   -2.048346   -0.626595
     18          1           0       -7.079866   -0.709080   -1.489144
     19          1           0       -7.532107   -0.303190    0.173274
     20          1           0       -7.626571   -1.982172   -0.384762
     21          6           0        4.255902   -0.596872   -0.361547
     22          6           0        5.463111   -1.132119    0.409258
     23          6           0        5.895981   -2.521231   -0.060619
     24          1           0        3.418539   -1.299701   -0.252928
     25          1           0        4.498984   -0.563431   -1.432616
     26          1           0        5.218304   -1.163236    1.478705
     27          1           0        6.297638   -0.427838    0.298949
     28          1           0        6.166769   -2.502115   -1.121236
     29          1           0        5.081302   -3.241691    0.065224
     30          1           0        6.760447   -2.884636    0.503736
     31          6           0        3.811273    0.790930    0.096753
     32          6           0        2.604063    1.326177   -0.674053
     33          6           0        2.171194    2.715289   -0.204176
     34          1           0        3.568190    0.757489    1.167822
     35          1           0        4.648635    1.493760   -0.011867
     36          1           0        1.769536    0.621896   -0.563744
     37          1           0        2.848870    1.357295   -1.743500
     38          1           0        2.985873    3.435750   -0.330019
     39          1           0        1.900406    2.696173    0.856441
     40          1           0        1.306728    3.078694   -0.768531
 ---------------------------------------------------------------------

 SCF Done:  E(RHF) =  -470.732238631     A.U. after   11 cycles
 E2 =    -0.1583378748D+01 EUMP2 =    -0.47231561737874D+03

 The electronic state is 1-A.
 Alpha  occ. eigenvalues --  -11.21602 -11.21591 -11.21572 -11.21488 -11.21402
 Alpha  occ. eigenvalues --  -11.21358 -11.21343 -11.21294 -11.21072 -11.21050
 Alpha  occ. eigenvalues --  -11.21037 -11.20997  -1.08433  -1.08376  -1.03572
 Alpha  occ. eigenvalues --   -1.03445  -0.96060  -0.95870  -0.87051  -0.86917
 Alpha  occ. eigenvalues --   -0.79616  -0.79538  -0.78252  -0.78184  -0.65097
 Alpha  occ. eigenvalues --   -0.64990  -0.61088  -0.60823  -0.59500  -0.59145
 Alpha  occ. eigenvalues --   -0.57656  -0.57495  -0.55348  -0.55180  -0.52782
 Alpha  occ. eigenvalues --   -0.52505  -0.52421  -0.52307  -0.50011  -0.49810
 Alpha  occ. eigenvalues --   -0.47982  -0.47804  -0.46766  -0.46431  -0.45826
 Alpha  occ. eigenvalues --   -0.45741  -0.45707  -0.45533  -0.43788  -0.43696
 Alpha virt. eigenvalues --    0.21879   0.23021   0.23609   0.25064   0.25807
 Alpha virt. eigenvalues --    0.26717   0.27022   0.27422   0.27798   0.29123
 Alpha virt. eigenvalues --    0.30535   0.31286   0.31548   0.32104   0.32319

 Mulliken charges:
               1
     1  C   -0.298640
     2  C   -0.299122
     3  C   -0.484714
     4  H    0.149517
     5  H    0.149436
     6  H    0.151779
     7  H    0.151710
     8  H    0.155883
     9  H    0.154075
    10  H    0.171119
    11  C   -0.298228
    12  C   -0.299619
    13  C   -0.475696
    14  H    0.149524
    15  H    0.149632
    16  H    0.151892
    17  H    0.151892
    18  H    0.155186
    19  H    0.155183
    20  H    0.160239
    21  C   -0.298236
    22  C   -0.299604
    23  C   -0.475688
    24  H    0.149366
    25  H    0.149311
    26  H    0.151963
    27  H    0.151882
    28  H    0.155079
    29  H    0.155119
    30  H    0.160159
    31  C   -0.297987
    32  C   -0.304749
    33  C   -0.478623
    34  H    0.149729
    35  H    0.149200
    36  H    0.159400
    37  H    0.151053
    38  H    0.155918
    39  H    0.155841
    40  H    0.159820
 Sum of Mulliken charges =  -0.00000

 Dipole moment (field-independent basis, Debye):
    X=             -0.0094    Y=              0.0139    Z=              0.0077  Tot=              0.0185
 Quadrupole moment (field-independent basis, Debye-Ang):
   XX=            -85.8831   YY=            -85.5802   ZZ=            -83.5359
   XY=              0.6034   XZ=             -0.8652   YZ=             -0.2649

 Normal termination of Gaussian 16 at Wed May  5 18:21:02 2021.
