 Gaussian 16, Revision A.03,
 Gaussian 16:  EM64L-G16RevA.03 25-Dec-2016

 -------------
 #p 6-31g* mp2
 -------------

 ------------------------------------------------------
 Input file generated by CHIRIPA (05-May-2021 14:53:12)
 ------------------------------------------------------
 Symbolic Z-matrix:
 Charge =  0 Multiplicity = 1

                         Standard orientation:
 ---------------------------------------------------------------------
 Center     Atomic      Atomic             Coordinates (Angstroms)
 Number     Number       Type             X           Y           Z
 ---------------------------------------------------------------------
      1          6           0        3.995675    0.632627   -0.511011
      2          6           0        4.052389    1.818674    0.452348
      3          6           0        4.730867    3.044923   -0.159022
      4          1           0        5.016591    0.371749   -0.821847
      5          1           0        3.459147    0.933955   -1.421360
      6          1           0        4.587445    1.514787    1.361185
      7          1           0        3.031234    2.076636    0.761076
      8          1           0        4.194627    3.375548   -1.054418
      9          1           0        5.759681    2.810507   -0.450899
     10          1           0        4.760552    3.880935    0.546714
     11          6           0        3.320232   -0.600810    0.085760
     12          6           0        3.263518   -1.786857   -0.877600
     13          6           0        2.585040   -3.013107   -0.266229
     14          1           0        3.856760   -0.902138    0.996109
     15          1           0        2.299316   -0.339932    0.396596
     16          1           0        4.284673   -2.044820   -1.186327
     17          1           0        2.728462   -1.482971   -1.786436
     18          1           0        1.556226   -2.778690    0.025648
     19          1           0        3.121280   -3.343732    0.629167
     20          1           0        2.555356   -3.849119   -0.971965
     21          6           0       -4.625884    1.255477   -1.111436
     22          6           0       -4.303887    1.630110    0.197186
     23          6           0       -3.325875    0.934780    0.914512
     24          6           0       -2.686842   -0.135004    0.289622
     25          6           0       -2.985445   -0.532413   -1.012757
     26          6           0       -3.966798    0.177313   -1.711173
     27          1           0       -5.386924    1.801218   -1.661327
     28          1           0       -4.814112    2.467018    0.665481
     29          1           0       -3.056998    1.203496    1.928866
     30          1           0       -2.459644   -1.370991   -1.452916
     31          1           0       -4.214810   -0.115866   -2.727333
     32          7           0       -1.649696   -0.878740    1.039014
     33          8           0       -1.101215   -1.817587    0.465977
     34          8           0       -1.404901   -0.508749    2.185233
 ---------------------------------------------------------------------

 SCF Done:  E(RHF) =  -669.536381347     A.U. after   15 cycles
 E2 =    -0.2091063520D+01 EUMP2 =    -0.67162744486687D+03

 The electronic state is 1-A.
 Alpha  occ. eigenvalues --  -20.61032 -20.61024 -15.86060 -11.31348 -11.27906
 Alpha  occ. eigenvalues --  -11.27903 -11.27639 -11.26906 -11.26897 -11.21010
 Alpha  occ. eigenvalues --  -11.20679 -11.20640 -11.20564 -11.20368 -11.19581
 Alpha  occ. eigenvalues --   -1.60088  -1.39644  -1.19513  -1.08923  -1.07592
 Alpha  occ. eigenvalues --   -1.04904  -1.02656  -0.95770  -0.95088  -0.86306
 Alpha  occ. eigenvalues --   -0.86100  -0.82604  -0.78753  -0.77661  -0.77362
 Alpha  occ. eigenvalues --   -0.72280  -0.71401  -0.70621  -0.65169  -0.64906
 Alpha  occ. eigenvalues --   -0.64229  -0.62251  -0.60050  -0.58513  -0.56695
 Alpha  occ. eigenvalues --   -0.55409  -0.54361  -0.53238  -0.52995  -0.51804
 Alpha  occ. eigenvalues --   -0.51497  -0.49180  -0.49031  -0.48867  -0.47039
 Alpha  occ. eigenvalues --   -0.45798  -0.45109  -0.44901  -0.44725  -0.42923
 Alpha  occ. eigenvalues --   -0.37491  -0.36504
 Alpha virt. eigenvalues --    0.04847   0.11152   0.16337   0.21282   0.23639
 Alpha virt. eigenvalues --    0.25239   0.27214   0.27437   0.28104   0.28359
 Alpha virt. eigenvalues --    0.29001   0.30855   0.32187   0.32433   0.32557

 Mulliken charges:
               1
     1  C   -0.297582
     2  C   -0.298925
     3  C   -0.475101
     4  H    0.147353
     5  H    0.145832
     6  H    0.152418
     7  H    0.152176
     8  H    0.152849
     9  H    0.154294
    10  H    0.158417
    11  C   -0.299025
    12  C   -0.297258
    13  C   -0.488417
    14  H    0.149234
    15  H    0.157088
    16  H    0.146347
    17  H    0.146485
    18  H    0.185528
    19  H    0.151283
    20  H    0.152275
    21  C   -0.170469
    22  C   -0.218604
    23  C   -0.170513
    24  C    0.157398
    25  C   -0.170828
    26  C   -0.218563
    27  H    0.226233
    28  H    0.224043
    29  H    0.276023
    30  H    0.276002
    31  H    0.224078
    32  N    0.491093
    33  O   -0.462954
    34  O   -0.458211
 Sum of Mulliken charges =  -0.00000

 Dipole moment (field-independent basis, Debye):
    X=             -3.9929    Y=              2.6060    Z=             -2.5159  Tot=              5.3911
 Quadrupole moment (field-independent basis, Debye-Ang):
   XX=            -76.0005   YY=            -95.4377   ZZ=            -93.4982
   XY=             -7.9468   XZ=              6.4609   YZ=              3.8669

 Normal termination of Gaussian 16 at Wed May  5 18:31:26 2021.
