 Gaussian 16, Revision A.03,
 Gaussian 16:  EM64L-G16RevA.03 25-Dec-2016

 -------------
 #p 6-31g* mp2
 -------------

 ------------------------------------------------------
 Input file generated by CHIRIPA (05-May-2021 14:57:23)
 ------------------------------------------------------
 Symbolic Z-matrix:
 Charge =  0 Multiplicity = 1

                         Standard orientation:
 ---------------------------------------------------------------------
 Center     Atomic      Atomic             Coordinates (Angstroms)
 Number     Number       Type             X           Y           Z
 ---------------------------------------------------------------------
      1          6           0       -1.233101   -0.243579   -1.243742
      2          6           0       -1.723382    0.938961   -0.680053
      3          6           0       -2.997620    0.976901   -0.106098
      4          6           0       -3.758057   -0.191420   -0.113183
      5          6           0       -3.297537   -1.384963   -0.666957
      6          6           0       -2.020355   -1.399729   -1.235410
      7          1           0       -0.242099   -0.264050   -1.687467
      8          1           0       -1.114202    1.838361   -0.685101
      9          1           0       -3.401848    1.878840    0.337212
     10          1           0       -3.928112   -2.265527   -0.646930
     11          1           0       -1.642183   -2.319524   -1.672453
     12          7           0       -5.108594   -0.163522    0.491525
     13          8           0       -5.758856   -1.206326    0.472622
     14          8           0       -5.491310    0.900619    0.972948
     15          6           0        5.518936   -1.363176    0.186162
     16          6           0        5.317884   -0.468128   -0.869768
     17          6           0        4.222337    0.400381   -0.865520
     18          6           0        3.343719    0.346756    0.215426
     19          6           0        3.516940   -0.533717    1.282221
     20          6           0        4.619408   -1.393060    1.256899
     21          1           0        6.372671   -2.034294    0.174677
     22          1           0        6.014840   -0.442714   -1.702625
     23          1           0        4.042784    1.103253   -1.669975
     24          1           0        2.805023   -0.535808    2.098670
     25          1           0        4.773042   -2.087122    2.078313
     26          7           0        2.180249    1.261355    0.231078
     27          8           0        1.420669    1.194488    1.195031
     28          8           0        2.049931    2.027768   -0.720902
 ---------------------------------------------------------------------

 SCF Done:  E(RHF) =  -868.340297300     A.U. after   15 cycles
 E2 =    -0.2599759893D+01 EUMP2 =    -0.87094005719305D+03

 The electronic state is 1-A.
 Alpha  occ. eigenvalues --  -20.62067 -20.62020 -20.59993 -20.59978 -15.87023
 Alpha  occ. eigenvalues --  -15.85028 -11.32107 -11.30205 -11.28646 -11.28607
 Alpha  occ. eigenvalues --  -11.28305 -11.27574 -11.27547 -11.26779 -11.26600
 Alpha  occ. eigenvalues --  -11.26388 -11.25828 -11.25439  -1.61105  -1.59066
 Alpha  occ. eigenvalues --   -1.40655  -1.38625  -1.20248  -1.18321  -1.09698
 Alpha  occ. eigenvalues --   -1.07754  -1.05595  -1.03671  -0.96576  -0.94636
 Alpha  occ. eigenvalues --   -0.87005  -0.85073  -0.83408  -0.81462  -0.78497
 Alpha  occ. eigenvalues --   -0.76533  -0.73237  -0.72437  -0.71335  -0.71252
 Alpha  occ. eigenvalues --   -0.70385  -0.69440  -0.65892  -0.65585  -0.63964
 Alpha  occ. eigenvalues --   -0.63630  -0.62937  -0.61007  -0.56097  -0.54207
 Alpha  occ. eigenvalues --   -0.53953  -0.53672  -0.52043  -0.51754  -0.50031
 Alpha  occ. eigenvalues --   -0.49964  -0.48020  -0.47986  -0.46108  -0.44073
 Alpha  occ. eigenvalues --   -0.38214  -0.37187  -0.36296  -0.35242
 Alpha virt. eigenvalues --    0.03978   0.05948   0.10470   0.12396   0.15542
 Alpha virt. eigenvalues --    0.17514   0.20679   0.22501   0.26625   0.27529
 Alpha virt. eigenvalues --    0.28585   0.28946   0.30406   0.31763   0.32070

 Mulliken charges:
               1
     1  C   -0.174586
     2  C   -0.212444
     3  C   -0.173923
     4  C    0.158457
     5  C   -0.174157
     6  C   -0.218935
     7  H    0.221109
     8  H    0.244462
     9  H    0.274549
    10  H    0.270982
    11  H    0.216951
    12  N    0.488054
    13  O   -0.464288
    14  O   -0.461393
    15  C   -0.169684
    16  C   -0.218666
    17  C   -0.172372
    18  C    0.155771
    19  C   -0.170504
    20  C   -0.218766
    21  H    0.228807
    22  H    0.225967
    23  H    0.275618
    24  H    0.278397
    25  H    0.226876
    26  N    0.486262
    27  O   -0.454841
    28  O   -0.467705
 Sum of Mulliken charges =  -0.00000

 Dipole moment (field-independent basis, Debye):
    X=              9.3903    Y=             -3.1680    Z=             -2.0294  Tot=             10.1159
 Quadrupole moment (field-independent basis, Debye-Ang):
   XX=           -113.9809   YY=           -102.3492   ZZ=           -101.1851
   XY=             -9.7482   XZ=              7.0071   YZ=             -1.1557

 Normal termination of Gaussian 16 at Thu May  6 06:38:08 2021.
