 Gaussian 16, Revision A.03,
 Gaussian 16:  EM64L-G16RevA.03 25-Dec-2016

 -------------
 #p 6-31g* mp2
 -------------

 ------------------------------------------------------
 Input file generated by CHIRIPA (05-May-2021 14:53:14)
 ------------------------------------------------------
 Symbolic Z-matrix:
 Charge =  0 Multiplicity = 1

                         Standard orientation:
 ---------------------------------------------------------------------
 Center     Atomic      Atomic             Coordinates (Angstroms)
 Number     Number       Type             X           Y           Z
 ---------------------------------------------------------------------
      1          6           0       -4.191089    0.383554   -0.039055
      2          6           0       -5.710545    0.497356   -0.166687
      3          6           0       -6.178298    1.934404   -0.398838
      4          1           0       -3.850397    1.019884    0.789171
      5          1           0       -3.722840    0.779799   -0.950717
      6          1           0       -6.175835    0.099741    0.744369
      7          1           0       -6.047681   -0.139467   -0.994583
      8          1           0       -5.741233    2.338082   -1.317869
      9          1           0       -5.870115    2.578650    0.430964
     10          1           0       -7.267639    1.992712   -0.487139
     11          6           0       -3.708114   -1.046993    0.193323
     12          6           0       -2.188659   -1.160794    0.320955
     13          6           0       -1.720906   -2.597842    0.553106
     14          1           0       -4.176364   -1.443237    1.104985
     15          1           0       -4.048807   -1.683322   -0.634903
     16          1           0       -1.851523   -0.523971    1.148851
     17          1           0       -1.723369   -0.763180   -0.590102
     18          1           0       -2.029089   -3.242088   -0.276696
     19          1           0       -2.157971   -3.001520    1.472137
     20          1           0       -0.631565   -2.656150    0.641407
     21          6           0        3.116445    2.760883    0.265832
     22          6           0        1.896987    2.081718    0.175397
     23          6           0        1.867911    0.695697   -0.005286
     24          6           0        3.082647    0.017298   -0.091787
     25          6           0        4.313726    0.665577   -0.005358
     26          6           0        4.318803    2.051893    0.175326
     27          1           0        3.129710    3.837692    0.406192
     28          1           0        0.961666    2.629740    0.245346
     29          1           0        0.938056    0.144861   -0.078541
     30          1           0        5.229730    0.092008   -0.078667
     31          1           0        5.267340    2.576716    0.245219
     32          7           0        3.064570   -1.450178   -0.283068
     33          8           0        4.148573   -2.024823   -0.356252
     34          8           0        1.966738   -1.997953   -0.356188
 ---------------------------------------------------------------------

 SCF Done:  E(RHF) =  -669.536215868     A.U. after   15 cycles
 E2 =    -0.2091450344D+01 EUMP2 =    -0.67162766621170D+03

 The electronic state is 1-A.
 Alpha  occ. eigenvalues --  -20.60877 -20.60859 -15.85913 -11.31212 -11.27784
 Alpha  occ. eigenvalues --  -11.27751 -11.27521 -11.26790 -11.26769 -11.21678
 Alpha  occ. eigenvalues --  -11.21510 -11.21478 -11.21300 -11.21200 -11.20325
 Alpha  occ. eigenvalues --   -1.59937  -1.39494  -1.19384  -1.08794  -1.08408
 Alpha  occ. eigenvalues --   -1.04776  -1.03417  -0.95823  -0.95629  -0.86825
 Alpha  occ. eigenvalues --   -0.86179  -0.82472  -0.79512  -0.78255  -0.77523
 Alpha  occ. eigenvalues --   -0.72144  -0.71252  -0.70493  -0.65049  -0.65034
 Alpha  occ. eigenvalues --   -0.64780  -0.62128  -0.60819  -0.59194  -0.57424
 Alpha  occ. eigenvalues --   -0.55286  -0.55111  -0.53114  -0.52866  -0.52449
 Alpha  occ. eigenvalues --   -0.52228  -0.49768  -0.48890  -0.48886  -0.47793
 Alpha  occ. eigenvalues --   -0.46569  -0.45771  -0.45712  -0.44912  -0.43636
 Alpha  occ. eigenvalues --   -0.37368  -0.36378
 Alpha virt. eigenvalues --    0.04984   0.11269   0.16475   0.20576   0.22911
 Alpha virt. eigenvalues --    0.23859   0.26059   0.26646   0.27582   0.28005
 Alpha virt. eigenvalues --    0.29216   0.30564   0.31488   0.31577   0.32212

 Mulliken charges:
               1
     1  C   -0.298042
     2  C   -0.299490
     3  C   -0.475638
     4  H    0.146112
     5  H    0.147111
     6  H    0.152686
     7  H    0.153244
     8  H    0.154319
     9  H    0.153732
    10  H    0.160941
    11  C   -0.297040
    12  C   -0.302827
    13  C   -0.485452
    14  H    0.150484
    15  H    0.151801
    16  H    0.144460
    17  H    0.148180
    18  H    0.155789
    19  H    0.150920
    20  H    0.186823
    21  C   -0.170373
    22  C   -0.220817
    23  C   -0.176313
    24  C    0.156928
    25  C   -0.170330
    26  C   -0.218966
    27  H    0.225714
    28  H    0.224445
    29  H    0.285240
    30  H    0.275523
    31  H    0.223484
    32  N    0.492676
    33  O   -0.459214
    34  O   -0.466110
 Sum of Mulliken charges =  -0.00000

 Dipole moment (field-independent basis, Debye):
    X=              0.1690    Y=              5.0498    Z=              0.6575  Tot=              5.0952
 Quadrupole moment (field-independent basis, Debye-Ang):
   XX=            -89.6568   YY=            -95.8228   ZZ=            -94.8785
   XY=             16.6647   XZ=              2.0315   YZ=             -0.1050

 Normal termination of Gaussian 16 at Wed May  5 15:36:33 2021.
