 Gaussian 16, Revision A.03,
 Gaussian 16:  EM64L-G16RevA.03 25-Dec-2016

 -------------
 #p 6-31g* mp2
 -------------

 ------------------------------------------------------
 Input file generated by CHIRIPA (05-May-2021 14:57:20)
 ------------------------------------------------------
 Symbolic Z-matrix:
 Charge =  0 Multiplicity = 1

                         Standard orientation:
 ---------------------------------------------------------------------
 Center     Atomic      Atomic             Coordinates (Angstroms)
 Number     Number       Type             X           Y           Z
 ---------------------------------------------------------------------
      1          6           0       -4.158105    2.447446    0.198382
      2          6           0       -4.957449    1.516987   -0.473790
      3          6           0       -4.582511    0.171528   -0.534700
      4          6           0       -3.396551   -0.210500    0.090474
      5          6           0       -2.578845    0.692738    0.767827
      6          6           0       -2.973443    2.033083    0.815957
      7          1           0       -4.457003    3.490645    0.240734
      8          1           0       -5.877997    1.835937   -0.954320
      9          1           0       -5.182542   -0.569804   -1.048322
     10          1           0       -1.666706    0.344764    1.237225
     11          1           0       -2.350692    2.753488    1.338683
     12          7           0       -2.989214   -1.632170    0.032756
     13          8           0       -1.939731   -1.943385    0.591655
     14          8           0       -3.727139   -2.408340   -0.570289
     15          6           0        5.771211    0.993069   -0.015112
     16          6           0        4.676584    1.772585   -0.403271
     17          6           0        3.393515    1.219669   -0.453912
     18          6           0        3.240602   -0.122117   -0.108191
     19          6           0        4.311381   -0.924646    0.282538
     20          6           0        5.585443   -0.350689    0.325952
     21          1           0        6.764432    1.430760    0.021419
     22          1           0        4.817879    2.816439   -0.668693
     23          1           0        2.528598    1.800308   -0.750884
     24          1           0        4.139177   -1.962323    0.541364
     25          1           0        6.433712   -0.958464    0.627771
     26          7           0        1.887041   -0.718601   -0.157977
     27          8           0        1.778795   -1.903154    0.151465
     28          8           0        0.959995    0.009721   -0.505499
 ---------------------------------------------------------------------

 SCF Done:  E(RHF) =  -868.336493681     A.U. after   16 cycles
 E2 =    -0.2600253664D+01 EUMP2 =    -0.87093674734445D+03

 The electronic state is 1-A.
 Alpha  occ. eigenvalues --  -20.60555 -20.60462 -20.59364 -20.59229 -15.85568
 Alpha  occ. eigenvalues --  -15.84351 -11.31099 -11.29965 -11.27716 -11.27653
 Alpha  occ. eigenvalues --  -11.27451 -11.26751 -11.26708 -11.26665 -11.26508
 Alpha  occ. eigenvalues --  -11.26491 -11.25743 -11.25684  -1.59565  -1.58370
 Alpha  occ. eigenvalues --   -1.39124  -1.37910  -1.19283  -1.18200  -1.08643
 Alpha  occ. eigenvalues --   -1.07567  -1.04711  -1.03648  -0.95450  -0.94346
 Alpha  occ. eigenvalues --   -0.86101  -0.85038  -0.82284  -0.81180  -0.77307
 Alpha  occ. eigenvalues --   -0.76158  -0.71771  -0.70919  -0.70570  -0.70388
 Alpha  occ. eigenvalues --   -0.69693  -0.69333  -0.64933  -0.64711  -0.63860
 Alpha  occ. eigenvalues --   -0.63683  -0.62057  -0.60982  -0.55199  -0.54199
 Alpha  occ. eigenvalues --   -0.53032  -0.52804  -0.51965  -0.51760  -0.48544
 Alpha  occ. eigenvalues --   -0.48479  -0.47375  -0.47290  -0.44499  -0.43243
 Alpha  occ. eigenvalues --   -0.37272  -0.36323  -0.36231  -0.35250
 Alpha virt. eigenvalues --    0.05207   0.06396   0.11328   0.12394   0.16671
 Alpha virt. eigenvalues --    0.17795   0.21448   0.22393   0.27347   0.28198
 Alpha virt. eigenvalues --    0.28405   0.29363   0.30993   0.31882   0.32585

 Mulliken charges:
               1
     1  C   -0.171841
     2  C   -0.219756
     3  C   -0.171693
     4  C    0.157205
     5  C   -0.160840
     6  C   -0.220807
     7  H    0.220099
     8  H    0.218668
     9  H    0.272837
    10  H    0.283577
    11  H    0.217916
    12  N    0.487375
    13  O   -0.445485
    14  O   -0.469381
    15  C   -0.171293
    16  C   -0.218419
    17  C   -0.172193
    18  C    0.158527
    19  C   -0.170853
    20  C   -0.218450
    21  H    0.225063
    22  H    0.221930
    23  H    0.272525
    24  H    0.277771
    25  H    0.223779
    26  N    0.487698
    27  O   -0.446427
    28  O   -0.467533
 Sum of Mulliken charges =  -0.00000

 Dipole moment (field-independent basis, Debye):
    X=              3.7235    Y=              6.7697    Z=              0.4620  Tot=              7.7399
 Quadrupole moment (field-independent basis, Debye-Ang):
   XX=            -62.8770   YY=           -104.4708   ZZ=           -104.4916
   XY=            -11.4012   XZ=              2.3836   YZ=             -0.8878

 Normal termination of Gaussian 16 at Thu May  6 01:39:54 2021.
