 Gaussian 16, Revision A.03,
 Gaussian 16:  EM64L-G16RevA.03 25-Dec-2016

 -------------
 #p 6-31g* mp2
 -------------

 ------------------------------------------------------
 Input file generated by CHIRIPA (05-May-2021 14:53:15)
 ------------------------------------------------------
 Symbolic Z-matrix:
 Charge =  0 Multiplicity = 1

                         Standard orientation:
 ---------------------------------------------------------------------
 Center     Atomic      Atomic             Coordinates (Angstroms)
 Number     Number       Type             X           Y           Z
 ---------------------------------------------------------------------
      1          6           0       -3.293223    1.129056   -0.211072
      2          6           0       -2.927405    1.985588    1.001577
      3          6           0       -2.411614    3.371376    0.612546
      4          1           0       -2.411479    1.025341   -0.858154
      5          1           0       -4.056245    1.652183   -0.803973
      6          1           0       -2.166305    1.460375    1.592757
      7          1           0       -3.810071    2.087116    1.645944
      8          1           0       -3.169178    3.918168    0.041830
      9          1           0       -1.516072    3.287866   -0.011659
     10          1           0       -2.156043    3.966816    1.494586
     11          6           0       -3.810481   -0.259196    0.161656
     12          6           0       -4.176299   -1.115728   -1.050992
     13          6           0       -4.692090   -2.501516   -0.661961
     14          1           0       -3.047459   -0.782323    0.754557
     15          1           0       -4.692225   -0.155481    0.808738
     16          1           0       -3.293633   -1.217256   -1.695359
     17          1           0       -4.937400   -0.590515   -1.642173
     18          1           0       -5.587632   -2.418006   -0.037757
     19          1           0       -3.934526   -3.048308   -0.091245
     20          1           0       -4.947661   -3.096956   -1.544001
     21          6           0        0.695842   -1.526114    0.816887
     22          6           0        0.595844   -0.491076   -0.118645
     23          6           0        1.741103    0.173243   -0.567652
     24          6           0        2.975879   -0.225100   -0.057805
     25          6           0        3.108128   -1.252556    0.875005
     26          6           0        1.949456   -1.902886    1.309858
     27          1           0       -0.199033   -2.036740    1.160189
     28          1           0       -0.376412   -0.196348   -0.503220
     29          1           0        1.692470    0.977866   -1.291277
     30          1           0        4.091189   -1.523984    1.240156
     31          1           0        2.030132   -2.706360    2.036469
     32          7           0        4.195413    0.470781   -0.525656
     33          8           0        5.271543    0.100953   -0.061102
     34          8           0        4.052064    1.372863   -1.348051
 ---------------------------------------------------------------------

 SCF Done:  E(RHF) =  -669.535438862     A.U. after   15 cycles
 E2 =    -0.2092075148D+01 EUMP2 =    -0.67162751401005D+03

 The electronic state is 1-A.
 Alpha  occ. eigenvalues --  -20.60766 -20.60760 -15.85819 -11.31194 -11.27765
 Alpha  occ. eigenvalues --  -11.27761 -11.27512 -11.26780 -11.26753 -11.22571
 Alpha  occ. eigenvalues --  -11.22490 -11.22440 -11.22385 -11.21937 -11.21695
 Alpha  occ. eigenvalues --   -1.59841  -1.39394  -1.19367  -1.09427  -1.08759
 Alpha  occ. eigenvalues --   -1.04772  -1.04392  -0.96847  -0.95594  -0.87853
 Alpha  occ. eigenvalues --   -0.86171  -0.82428  -0.80454  -0.79243  -0.77475
 Alpha  occ. eigenvalues --   -0.72038  -0.71164  -0.70481  -0.66224  -0.65019
 Alpha  occ. eigenvalues --   -0.64678  -0.62129  -0.61768  -0.60204  -0.58448
 Alpha  occ. eigenvalues --   -0.56156  -0.55275  -0.53481  -0.53268  -0.53097
 Alpha  occ. eigenvalues --   -0.52851  -0.50790  -0.48802  -0.48792  -0.48756
 Alpha  occ. eigenvalues --   -0.47506  -0.46748  -0.46727  -0.44798  -0.44687
 Alpha  occ. eigenvalues --   -0.37348  -0.36371
 Alpha virt. eigenvalues --    0.05061   0.11216   0.16531   0.17795   0.22843
 Alpha virt. eigenvalues --    0.23365   0.24835   0.25145   0.26905   0.28567
 Alpha virt. eigenvalues --    0.29629   0.30710   0.31187   0.31237   0.31699

 Mulliken charges:
               1
     1  C   -0.302078
     2  C   -0.301588
     3  C   -0.475339
     4  H    0.141777
     5  H    0.156222
     6  H    0.151248
     7  H    0.155248
     8  H    0.157433
     9  H    0.153944
    10  H    0.164390
    11  C   -0.299812
    12  C   -0.300600
    13  C   -0.475094
    14  H    0.140627
    15  H    0.155404
    16  H    0.148827
    17  H    0.156700
    18  H    0.158028
    19  H    0.150954
    20  H    0.164071
    21  C   -0.174240
    22  C   -0.225932
    23  C   -0.173242
    24  C    0.158887
    25  C   -0.170987
    26  C   -0.218392
    27  H    0.226470
    28  H    0.234904
    29  H    0.275680
    30  H    0.275671
    31  H    0.223521
    32  N    0.488084
    33  O   -0.460449
    34  O   -0.460335
 Sum of Mulliken charges =  -0.00000

 Dipole moment (field-independent basis, Debye):
    X=             -4.5131    Y=             -2.3679    Z=              1.6658  Tot=              5.3619
 Quadrupole moment (field-independent basis, Debye-Ang):
   XX=           -117.3140   YY=            -92.9914   ZZ=            -93.7210
   XY=             -9.1965   XZ=              7.1775   YZ=             -1.9995

 Normal termination of Gaussian 16 at Thu May  6 15:30:07 2021.
