 Gaussian 16, Revision A.03,
 Gaussian 16:  EM64L-G16RevA.03 25-Dec-2016

 -------------
 #p 6-31g* mp2
 -------------

 ------------------------------------------------------
 Input file generated by CHIRIPA (05-May-2021 14:57:25)
 ------------------------------------------------------
 Symbolic Z-matrix:
 Charge =  0 Multiplicity = 1

                         Standard orientation:
 ---------------------------------------------------------------------
 Center     Atomic      Atomic             Coordinates (Angstroms)
 Number     Number       Type             X           Y           Z
 ---------------------------------------------------------------------
      1          6           0        4.555691    1.786711   -0.224075
      2          6           0        5.163940    0.528677   -0.286548
      3          6           0        4.395637   -0.636361   -0.203215
      4          6           0        3.015450   -0.505899   -0.057084
      5          6           0        2.380056    0.733169    0.008297
      6          6           0        3.168136    1.884769   -0.077111
      7          1           0        5.160208    2.686522   -0.289616
      8          1           0        6.241324    0.449493   -0.400655
      9          1           0        4.840600   -1.622945   -0.248810
     10          1           0        1.303857    0.780172    0.122330
     11          1           0        2.693044    2.860449   -0.028304
     12          7           0        2.191614   -1.732160    0.032235
     13          8           0        0.977534   -1.590265    0.160736
     14          8           0        2.775570   -2.811979   -0.027948
     15          6           0       -2.101306    2.578675    0.369311
     16          6           0       -1.585730    1.474541    1.056035
     17          6           0       -2.159482    0.209377    0.898814
     18          6           0       -3.252731    0.083870    0.043043
     19          6           0       -3.789202    1.164741   -0.654959
     20          6           0       -3.199460    2.420531   -0.482492
     21          1           0       -1.649391    3.557844    0.497366
     22          1           0       -0.732970    1.594393    1.718214
     23          1           0       -1.780451   -0.662354    1.418274
     24          1           0       -4.640121    1.014025   -1.308134
     25          1           0       -3.601969    3.276240   -1.017087
     26          7           0       -3.868601   -1.250540   -0.131470
     27          8           0       -4.831040   -1.334737   -0.891246
     28          8           0       -3.377218   -2.186987    0.494827
 ---------------------------------------------------------------------

 SCF Done:  E(RHF) =  -868.337215036     A.U. after   16 cycles
 E2 =    -0.2601018551D+01 EUMP2 =    -0.87093823358718D+03

 The electronic state is 1-A.
 Alpha  occ. eigenvalues --  -20.61112 -20.61076 -20.60223 -20.60167 -15.86154
 Alpha  occ. eigenvalues --  -15.85262 -11.31588 -11.30824 -11.28185 -11.28138
 Alpha  occ. eigenvalues --  -11.27925 -11.27543 -11.27435 -11.27407 -11.27251
 Alpha  occ. eigenvalues --  -11.27165 -11.26606 -11.26581  -1.60161  -1.59270
 Alpha  occ. eigenvalues --   -1.39718  -1.38814  -1.19771  -1.19094  -1.09149
 Alpha  occ. eigenvalues --   -1.08475  -1.05195  -1.04529  -0.95972  -0.95247
 Alpha  occ. eigenvalues --   -0.86590  -0.85929  -0.82812  -0.82078  -0.77865
 Alpha  occ. eigenvalues --   -0.77038  -0.72374  -0.71491  -0.71479  -0.70883
 Alpha  occ. eigenvalues --   -0.70593  -0.70223  -0.65431  -0.65223  -0.64754
 Alpha  occ. eigenvalues --   -0.64560  -0.62565  -0.61812  -0.55685  -0.55106
 Alpha  occ. eigenvalues --   -0.53511  -0.53346  -0.52806  -0.52604  -0.49118
 Alpha  occ. eigenvalues --   -0.49110  -0.48271  -0.48207  -0.45108  -0.44173
 Alpha  occ. eigenvalues --   -0.37749  -0.37148  -0.36802  -0.36112
 Alpha virt. eigenvalues --    0.04680   0.05481   0.10834   0.11396   0.16160
 Alpha virt. eigenvalues --    0.16742   0.20352   0.21974   0.26066   0.27305
 Alpha virt. eigenvalues --    0.28461   0.28993   0.30544   0.31069   0.32614

 Mulliken charges:
               1
     1  C   -0.170285
     2  C   -0.218583
     3  C   -0.169535
     4  C    0.158007
     5  C   -0.177589
     6  C   -0.220306
     7  H    0.226180
     8  H    0.225098
     9  H    0.277544
    10  H    0.277245
    11  H    0.219237
    12  N    0.489551
    13  O   -0.464327
    14  O   -0.455705
    15  C   -0.172920
    16  C   -0.230045
    17  C   -0.158564
    18  C    0.156166
    19  C   -0.169096
    20  C   -0.219770
    21  H    0.219913
    22  H    0.218340
    23  H    0.290191
    24  H    0.275720
    25  H    0.221512
    26  N    0.488054
    27  O   -0.464002
    28  O   -0.452030
 Sum of Mulliken charges =  -0.00000

 Dipole moment (field-independent basis, Debye):
    X=              5.1222    Y=              8.6345    Z=              0.3048  Tot=             10.0441
 Quadrupole moment (field-independent basis, Debye-Ang):
   XX=            -95.7537   YY=           -107.3047   ZZ=           -104.0825
   XY=             -7.3818   XZ=             -1.2984   YZ=             -1.1862

 Normal termination of Gaussian 16 at Thu May  6 16:24:38 2021.
