 Gaussian 16, Revision A.03,
 Gaussian 16:  EM64L-G16RevA.03 25-Dec-2016

 -------------
 #p 6-31g* mp2
 -------------

 ------------------------------------------------------
 Input file generated by CHIRIPA (05-May-2021 14:55:18)
 ------------------------------------------------------
 Symbolic Z-matrix:
 Charge =  0 Multiplicity = 1

                         Standard orientation:
 ---------------------------------------------------------------------
 Center     Atomic      Atomic             Coordinates (Angstroms)
 Number     Number       Type             X           Y           Z
 ---------------------------------------------------------------------
      1          6           0       -4.855482    2.066862    0.099423
      2          6           0       -4.331737    1.647404   -1.127877
      3          6           0       -3.504725    0.522485   -1.199687
      4          6           0       -3.220775   -0.162475   -0.019225
      5          6           0       -3.727298    0.230574    1.218611
      6          6           0       -4.552126    1.358357    1.266692
      7          1           0       -5.497077    2.941838    0.145991
      8          1           0       -4.565635    2.195702   -2.036011
      9          1           0       -3.085760    0.175814   -2.136547
     10          1           0       -3.476310   -0.336404    2.106844
     11          1           0       -4.957459    1.681813    2.221222
     12          7           0       -2.346410   -1.354893   -0.082687
     13          8           0       -2.111301   -1.941114    0.971687
     14          8           0       -1.912750   -1.680709   -1.185601
     15          6           0        4.808473    0.424777   -0.324403
     16          6           0        5.962981    0.833619    0.590991
     17          6           0        6.957751    1.770666   -0.094697
     18          1           0        5.214905   -0.062388   -1.221302
     19          1           0        4.285496    1.327654   -0.668939
     20          1           0        6.482773   -0.069833    0.934803
     21          1           0        5.553743    1.319696    1.485904
     22          1           0        6.459142    2.688421   -0.422897
     23          1           0        7.393449    1.290997   -0.977129
     24          1           0        7.774835    2.050307    0.577639
     25          6           0        3.805622   -0.511944    0.346842
     26          6           0        2.651114   -0.920785   -0.568551
     27          6           0        1.656344   -1.857833    0.117138
     28          1           0        4.328599   -1.414820    0.691378
     29          1           0        3.399190   -0.024778    1.243741
     30          1           0        3.060352   -1.406862   -1.463464
     31          1           0        2.131323   -0.017333   -0.912363
     32          1           0        1.220645   -1.378164    0.999569
     33          1           0        2.154954   -2.775588    0.445337
     34          1           0        0.839261   -2.137474   -0.555198
 ---------------------------------------------------------------------

 SCF Done:  E(RHF) =  -669.536419624     A.U. after   15 cycles
 E2 =    -0.2091337099D+01 EUMP2 =    -0.67162775672284D+03

 The electronic state is 1-A.
 Alpha  occ. eigenvalues --  -20.60966 -20.60961 -15.85973 -11.31303 -11.27862
 Alpha  occ. eigenvalues --  -11.27859 -11.27600 -11.26869 -11.26859 -11.21151
 Alpha  occ. eigenvalues --  -11.20802 -11.20722 -11.20599 -11.20520 -11.19421
 Alpha  occ. eigenvalues --   -1.60005  -1.39564  -1.19467  -1.08871  -1.07711
 Alpha  occ. eigenvalues --   -1.04863  -1.02704  -0.95715  -0.95115  -0.86264
 Alpha  occ. eigenvalues --   -0.86125  -0.82547  -0.78801  -0.77601  -0.77491
 Alpha  occ. eigenvalues --   -0.72194  -0.71317  -0.70576  -0.65122  -0.64866
 Alpha  occ. eigenvalues --   -0.64360  -0.62210  -0.60122  -0.58546  -0.56711
 Alpha  occ. eigenvalues --   -0.55368  -0.54433  -0.53198  -0.52955  -0.51764
 Alpha  occ. eigenvalues --   -0.51548  -0.49135  -0.48953  -0.48878  -0.47088
 Alpha  occ. eigenvalues --   -0.45882  -0.45081  -0.44975  -0.44875  -0.42898
 Alpha  occ. eigenvalues --   -0.37444  -0.36464
 Alpha virt. eigenvalues --    0.04901   0.11191   0.16392   0.21328   0.23507
 Alpha virt. eigenvalues --    0.25212   0.27246   0.27303   0.28148   0.28195
 Alpha virt. eigenvalues --    0.28983   0.30903   0.32170   0.32375   0.32465

 Mulliken charges:
               1
     1  C   -0.170582
     2  C   -0.218586
     3  C   -0.170790
     4  C    0.159258
     5  C   -0.170916
     6  C   -0.218606
     7  H    0.226018
     8  H    0.223865
     9  H    0.275867
    10  H    0.275913
    11  H    0.223853
    12  N    0.489076
    13  O   -0.458034
    14  O   -0.460384
    15  C   -0.297209
    16  C   -0.298933
    17  C   -0.475189
    18  H    0.148852
    19  H    0.147041
    20  H    0.151712
    21  H    0.150611
    22  H    0.153777
    23  H    0.154797
    24  H    0.158702
    25  C   -0.296889
    26  C   -0.299242
    27  C   -0.484283
    28  H    0.148691
    29  H    0.147149
    30  H    0.149336
    31  H    0.146599
    32  H    0.152596
    33  H    0.149978
    34  H    0.185953
 Sum of Mulliken charges =  -0.00000

 Dipole moment (field-independent basis, Debye):
    X=             -3.4239    Y=              4.1098    Z=              0.2072  Tot=              5.3531
 Quadrupole moment (field-independent basis, Debye-Ang):
   XX=            -76.9233   YY=            -96.4430   ZZ=            -89.9390
   XY=            -14.4514   XZ=             -1.1653   YZ=             -0.2435

 Normal termination of Gaussian 16 at Wed May  5 17:18:11 2021.
