 Gaussian 16, Revision A.03,
 Gaussian 16:  EM64L-G16RevA.03 25-Dec-2016

 -------------
 #p 6-31g* mp2
 -------------

 ------------------------------------------------------
 Input file generated by CHIRIPA (05-May-2021 14:57:27)
 ------------------------------------------------------
 Symbolic Z-matrix:
 Charge =  0 Multiplicity = 1

                         Standard orientation:
 ---------------------------------------------------------------------
 Center     Atomic      Atomic             Coordinates (Angstroms)
 Number     Number       Type             X           Y           Z
 ---------------------------------------------------------------------
      1          6           0       -1.760732    2.155940    1.079772
      2          6           0       -1.513537    0.946210    1.737015
      3          6           0       -2.128212   -0.233713    1.307476
      4          6           0       -2.988270   -0.167231    0.212409
      5          6           0       -3.254744    1.022635   -0.463239
      6          6           0       -2.629016    2.190231   -0.016325
      7          1           0       -1.278944    3.067744    1.420197
      8          1           0       -0.839682    0.916590    2.588536
      9          1           0       -1.954655   -1.183850    1.797921
     10          1           0       -3.931383    1.020666   -1.309155
     11          1           0       -2.822858    3.128297   -0.528675
     12          7           0       -3.644850   -1.409838   -0.251521
     13          8           0       -4.398419   -1.324676   -1.218743
     14          8           0       -3.393475   -2.445425    0.360856
     15          6           0        5.023953   -1.125695    0.476379
     16          6           0        4.987353    0.250248    0.227466
     17          6           0        3.804984    0.863808   -0.196911
     18          6           0        2.672794    0.067631   -0.362853
     19          6           0        2.677521   -1.305587   -0.122978
     20          6           0        3.870954   -1.897861    0.300673
     21          1           0        5.946743   -1.594055    0.805763
     22          1           0        5.881255    0.852406    0.363078
     23          1           0        3.748644    1.926963   -0.396781
     24          1           0        1.770284   -1.879680   -0.267051
     25          1           0        3.896442   -2.966654    0.493231
     26          7           0        1.415217    0.705912   -0.811737
     27          8           0        0.431391   -0.017613   -0.950428
     28          8           0        1.437165    1.917636   -1.016381
 ---------------------------------------------------------------------

 SCF Done:  E(RHF) =  -868.338079973     A.U. after   16 cycles
 E2 =    -0.2601543609D+01 EUMP2 =    -0.87093962358206D+03

 The electronic state is 1-A.
 Alpha  occ. eigenvalues --  -20.61234 -20.61154 -20.59734 -20.59712 -15.86207
 Alpha  occ. eigenvalues --  -15.84771 -11.31546 -11.29812 -11.28122 -11.28071
 Alpha  occ. eigenvalues --  -11.27823 -11.27113 -11.27074 -11.26485 -11.26394
 Alpha  occ. eigenvalues --  -11.26149 -11.25452 -11.25336  -1.60250  -1.58801
 Alpha  occ. eigenvalues --   -1.39811  -1.38369  -1.19710  -1.17974  -1.09111
 Alpha  occ. eigenvalues --   -1.07450  -1.05099  -1.03400  -0.95955  -0.94344
 Alpha  occ. eigenvalues --   -0.86498  -0.84842  -0.82789  -0.81224  -0.77842
 Alpha  occ. eigenvalues --   -0.76298  -0.72465  -0.71592  -0.71020  -0.70805
 Alpha  occ. eigenvalues --   -0.70093  -0.69188  -0.65360  -0.65092  -0.63702
 Alpha  occ. eigenvalues --   -0.63492  -0.62441  -0.60820  -0.55597  -0.53957
 Alpha  occ. eigenvalues --   -0.53453  -0.53183  -0.51736  -0.51574  -0.49210
 Alpha  occ. eigenvalues --   -0.49074  -0.47778  -0.47741  -0.45208  -0.43850
 Alpha  occ. eigenvalues --   -0.37695  -0.36707  -0.35886  -0.34895
 Alpha virt. eigenvalues --    0.04664   0.06286   0.10947   0.12677   0.16185
 Alpha virt. eigenvalues --    0.17836   0.21131   0.22556   0.27044   0.27988
 Alpha virt. eigenvalues --    0.28401   0.29452   0.30704   0.31983   0.32284

 Mulliken charges:
               1
     1  C   -0.160214
     2  C   -0.221046
     3  C   -0.161881
     4  C    0.165986
     5  C   -0.165746
     6  C   -0.210264
     7  H    0.222047
     8  H    0.213701
     9  H    0.266851
    10  H    0.271553
    11  H    0.220217
    12  N    0.488136
    13  O   -0.463254
    14  O   -0.467563
    15  C   -0.170772
    16  C   -0.218618
    17  C   -0.172207
    18  C    0.157118
    19  C   -0.172632
    20  C   -0.218785
    21  H    0.226888
    22  H    0.223884
    23  H    0.274183
    24  H    0.278696
    25  H    0.225984
    26  N    0.488696
    27  O   -0.455155
    28  O   -0.465804
 Sum of Mulliken charges =  -0.00000

 Dipole moment (field-independent basis, Debye):
    X=              6.9364    Y=              2.1708    Z=              3.0368  Tot=              7.8771
 Quadrupole moment (field-independent basis, Debye-Ang):
   XX=            -94.4117   YY=           -102.0659   ZZ=           -104.3020
   XY=            -19.0124   XZ=              0.5316   YZ=             -0.7773

 Normal termination of Gaussian 16 at Wed May  5 22:53:59 2021.
