 Gaussian 16, Revision A.03,
 Gaussian 16:  EM64L-G16RevA.03 25-Dec-2016

 -------------
 #p 6-31g* mp2
 -------------

 ------------------------------------------------------
 Input file generated by CHIRIPA (05-May-2021 14:55:24)
 ------------------------------------------------------
 Symbolic Z-matrix:
 Charge =  0 Multiplicity = 1

                         Standard orientation:
 ---------------------------------------------------------------------
 Center     Atomic      Atomic             Coordinates (Angstroms)
 Number     Number       Type             X           Y           Z
 ---------------------------------------------------------------------
      1          6           0       -1.534748   -2.645900    0.290788
      2          6           0       -2.932067   -2.603315    0.243815
      3          6           0       -3.599774   -1.388042    0.065413
      4          6           0       -2.835359   -0.229409   -0.063151
      5          6           0       -1.442025   -0.239285   -0.020566
      6          6           0       -0.795490   -1.465829    0.158681
      7          1           0       -1.024280   -3.594331    0.429703
      8          1           0       -3.508763   -3.518192    0.346129
      9          1           0       -4.680517   -1.326351    0.025329
     10          1           0       -0.894312    0.689375   -0.125537
     11          1           0        0.289793   -1.495890    0.194770
     12          7           0       -3.531024    1.063112   -0.252464
     13          8           0       -2.834638    2.069799   -0.363213
     14          8           0       -4.759499    1.045029   -0.286515
     15          6           0        4.004785    0.191929   -0.372007
     16          6           0        4.467605   -1.113649    0.275488
     17          6           0        5.512452   -1.851168   -0.562457
     18          1           0        3.592163   -0.025636   -1.366669
     19          1           0        4.875430    0.843295   -0.530424
     20          1           0        3.596155   -1.761798    0.433902
     21          1           0        4.878998   -0.892974    1.268803
     22          1           0        6.399217   -1.226218   -0.709722
     23          1           0        5.109085   -2.099978   -1.549367
     24          1           0        5.829277   -2.781602   -0.081026
     25          6           0        2.960219    0.940698    0.453799
     26          6           0        2.497401    2.246276   -0.193696
     27          6           0        1.452552    2.983795    0.644249
     28          1           0        2.089575    0.289331    0.612216
     29          1           0        3.372842    1.158262    1.448461
     30          1           0        2.086007    2.025601   -1.187011
     31          1           0        3.368849    2.894425   -0.352110
     32          1           0        1.855920    3.232604    1.631159
     33          1           0        0.565789    2.358844    0.791514
     34          1           0        1.135727    3.914228    0.162819
 ---------------------------------------------------------------------

 SCF Done:  E(RHF) =  -669.535166042     A.U. after   15 cycles
 E2 =    -0.2092328397D+01 EUMP2 =    -0.67162749443884D+03

 The electronic state is 1-A.
 Alpha  occ. eigenvalues --  -20.60757 -20.60751 -15.85808 -11.31181 -11.27751
 Alpha  occ. eigenvalues --  -11.27739 -11.27496 -11.26772 -11.26757 -11.22311
 Alpha  occ. eigenvalues --  -11.22124 -11.22019 -11.22000 -11.21646 -11.21283
 Alpha  occ. eigenvalues --   -1.59831  -1.39384  -1.19355  -1.09056  -1.08748
 Alpha  occ. eigenvalues --   -1.04764  -1.04055  -0.96485  -0.95583  -0.87493
 Alpha  occ. eigenvalues --   -0.86160  -0.82418  -0.80114  -0.78882  -0.77460
 Alpha  occ. eigenvalues --   -0.72027  -0.71153  -0.70477  -0.65736  -0.65005
 Alpha  occ. eigenvalues --   -0.64783  -0.62191  -0.61378  -0.59847  -0.58091
 Alpha  occ. eigenvalues --   -0.55815  -0.55257  -0.53123  -0.53087  -0.53029
 Alpha  occ. eigenvalues --   -0.52718  -0.50422  -0.48790  -0.48782  -0.48413
 Alpha  occ. eigenvalues --   -0.47169  -0.46401  -0.46337  -0.44786  -0.44320
 Alpha  occ. eigenvalues --   -0.37336  -0.36361
 Alpha virt. eigenvalues --    0.05056   0.11263   0.16544   0.18170   0.22578
 Alpha virt. eigenvalues --    0.23220   0.24626   0.26280   0.26846   0.28467
 Alpha virt. eigenvalues --    0.29480   0.31273   0.31323   0.31471   0.31971

 Mulliken charges:
               1
     1  C   -0.170895
     2  C   -0.218689
     3  C   -0.170220
     4  C    0.157803
     5  C   -0.180005
     6  C   -0.226397
     7  H    0.225948
     8  H    0.223464
     9  H    0.275648
    10  H    0.287545
    11  H    0.228919
    12  N    0.487186
    13  O   -0.460820
    14  O   -0.460365
    15  C   -0.299024
    16  C   -0.298808
    17  C   -0.476062
    18  H    0.149569
    19  H    0.153752
    20  H    0.143413
    21  H    0.154734
    22  H    0.158022
    23  H    0.155449
    24  H    0.161023
    25  C   -0.301118
    26  C   -0.303066
    27  C   -0.478453
    28  H    0.139174
    29  H    0.153959
    30  H    0.152452
    31  H    0.155526
    32  H    0.156643
    33  H    0.154104
    34  H    0.169587
 Sum of Mulliken charges =  -0.00000

 Dipole moment (field-independent basis, Debye):
    X=              2.5908    Y=             -4.3954    Z=              0.6568  Tot=              5.1443
 Quadrupole moment (field-independent basis, Debye-Ang):
   XX=           -104.1175   YY=            -91.5765   ZZ=            -95.7399
   XY=             16.0433   XZ=             -1.5316   YZ=             -0.0123

 Normal termination of Gaussian 16 at Thu May  6 04:44:09 2021.
