 Gaussian 16, Revision A.03,
 Gaussian 16:  EM64L-G16RevA.03 25-Dec-2016

 -------------
 #p 6-31g* mp2
 -------------

 ------------------------------------------------------
 Input file generated by CHIRIPA (05-May-2021 14:55:22)
 ------------------------------------------------------
 Symbolic Z-matrix:
 Charge =  0 Multiplicity = 1

                         Standard orientation:
 ---------------------------------------------------------------------
 Center     Atomic      Atomic             Coordinates (Angstroms)
 Number     Number       Type             X           Y           Z
 ---------------------------------------------------------------------
      1          6           0        2.074364    2.043385   -0.821004
      2          6           0        1.350505    0.855348   -0.966325
      3          6           0        1.915091   -0.369589   -0.598469
      4          6           0        3.211664   -0.369753   -0.086427
      5          6           0        3.958290    0.796970    0.070405
      6          6           0        3.373656    2.010462   -0.304014
      7          1           0        1.627994    2.990500   -1.109312
      8          1           0        0.341267    0.877898   -1.367544
      9          1           0        1.377138   -1.304280   -0.700343
     10          1           0        4.962342    0.742684    0.473331
     11          1           0        3.938167    2.931539   -0.190042
     12          7           0        3.819978   -1.660481    0.306479
     13          8           0        4.963954   -1.633772    0.755080
     14          8           0        3.141280   -2.674423    0.158399
     15          6           0       -3.821799    0.916033    0.408673
     16          6           0       -2.325029    1.228515    0.404203
     17          6           0       -2.019265    2.662755    0.836931
     18          1           0       -4.338812    1.619785   -0.257941
     19          1           0       -4.222386    1.089042    1.417134
     20          1           0       -1.927108    1.053640   -0.603613
     21          1           0       -1.811495    0.523815    1.070758
     22          1           0       -2.389205    2.846397    1.850844
     23          1           0       -2.505476    3.379233    0.166960
     24          1           0       -0.943614    2.864566    0.826518
     25          6           0       -4.143402   -0.514046   -0.021644
     26          6           0       -5.640172   -0.826528   -0.017174
     27          6           0       -5.945937   -2.260770   -0.449902
     28          1           0       -3.742816   -0.687055   -1.030105
     29          1           0       -3.626390   -1.217798    0.644971
     30          1           0       -6.153707   -0.121828   -0.683729
     31          1           0       -6.038095   -0.651654    0.990642
     32          1           0       -5.459727   -2.977247    0.220069
     33          1           0       -5.575997   -2.444410   -1.463816
     34          1           0       -7.021588   -2.462579   -0.439490
 ---------------------------------------------------------------------

 SCF Done:  E(RHF) =  -669.535524578     A.U. after   15 cycles
 E2 =    -0.2091692666D+01 EUMP2 =    -0.67162721724373D+03

 The electronic state is 1-A.
 Alpha  occ. eigenvalues --  -20.60750 -20.60745 -15.85803 -11.31170 -11.27733
 Alpha  occ. eigenvalues --  -11.27717 -11.27473 -11.26755 -11.26710 -11.22473
 Alpha  occ. eigenvalues --  -11.22009 -11.21984 -11.21887 -11.21873 -11.21353
 Alpha  occ. eigenvalues --   -1.59826  -1.39379  -1.19338  -1.09024  -1.08733
 Alpha  occ. eigenvalues --   -1.04739  -1.04116  -0.96547  -0.95568  -0.87565
 Alpha  occ. eigenvalues --   -0.86137  -0.82402  -0.80213  -0.78821  -0.77440
 Alpha  occ. eigenvalues --   -0.72021  -0.71149  -0.70445  -0.65676  -0.64988
 Alpha  occ. eigenvalues --   -0.64745  -0.62130  -0.61483  -0.59928  -0.58155
 Alpha  occ. eigenvalues --   -0.55821  -0.55243  -0.53287  -0.53079  -0.52919
 Alpha  occ. eigenvalues --   -0.52833  -0.50482  -0.48793  -0.48776  -0.48488
 Alpha  occ. eigenvalues --   -0.47235  -0.46349  -0.46261  -0.44784  -0.44364
 Alpha  occ. eigenvalues --   -0.37314  -0.36326
 Alpha virt. eigenvalues --    0.05066   0.11231   0.16521   0.19998   0.22622
 Alpha virt. eigenvalues --    0.23978   0.25136   0.26428   0.26843   0.28292
 Alpha virt. eigenvalues --    0.28730   0.29738   0.31108   0.31592   0.32243

 Mulliken charges:
               1
     1  C   -0.173763
     2  C   -0.219126
     3  C   -0.173292
     4  C    0.158740
     5  C   -0.171213
     6  C   -0.218573
     7  H    0.226270
     8  H    0.230178
     9  H    0.275919
    10  H    0.275502
    11  H    0.223393
    12  N    0.488066
    13  O   -0.460529
    14  O   -0.460405
    15  C   -0.298147
    16  C   -0.301800
    17  C   -0.478646
    18  H    0.150156
    19  H    0.152715
    20  H    0.141415
    21  H    0.157252
    22  H    0.160568
    23  H    0.154878
    24  H    0.157434
    25  C   -0.299044
    26  C   -0.300085
    27  C   -0.476211
    28  H    0.147195
    29  H    0.152018
    30  H    0.152044
    31  H    0.153284
    32  H    0.156934
    33  H    0.155230
    34  H    0.161646
 Sum of Mulliken charges =  -0.00000

 Dipole moment (field-independent basis, Debye):
    X=             -2.2843    Y=              4.5182    Z=             -1.3026  Tot=              5.2277
 Quadrupole moment (field-independent basis, Debye-Ang):
   XX=           -104.8062   YY=            -98.3984   ZZ=            -94.0029
   XY=             17.5393   XZ=             -3.2634   YZ=              0.3335

 Normal termination of Gaussian 16 at Thu May  6 12:32:57 2021.
