 Gaussian 16, Revision A.03,
 Gaussian 16:  EM64L-G16RevA.03 25-Dec-2016

 -------------
 #p 6-31g* mp2
 -------------

 ------------------------------------------------------
 Input file generated by CHIRIPA (05-May-2021 14:53:13)
 ------------------------------------------------------
 Symbolic Z-matrix:
 Charge =  0 Multiplicity = 1

                         Standard orientation:
 ---------------------------------------------------------------------
 Center     Atomic      Atomic             Coordinates (Angstroms)
 Number     Number       Type             X           Y           Z
 ---------------------------------------------------------------------
      1          6           0        4.498772   -0.453614    0.359509
      2          6           0        4.265815   -1.872039   -0.161823
      3          6           0        5.031174   -2.928223    0.635985
      4          1           0        5.574047   -0.230491    0.328788
      5          1           0        4.199478   -0.404861    1.415654
      6          1           0        4.564163   -1.917748   -1.217055
      7          1           0        3.190949   -2.091742   -0.130036
      8          1           0        4.727289   -2.911730    1.687642
      9          1           0        6.108305   -2.736747    0.594447
     10          1           0        4.850261   -3.934845    0.246315
     11          6           0        3.740309    0.613402   -0.427852
     12          6           0        3.973266    2.031827    0.093480
     13          6           0        3.207907    3.088010   -0.704327
     14          1           0        4.039602    0.564648   -1.483997
     15          1           0        2.665033    0.390279   -0.397131
     16          1           0        5.048132    2.251529    0.061693
     17          1           0        3.674918    2.077535    1.148712
     18          1           0        2.130775    2.896535   -0.662790
     19          1           0        3.511792    3.071518   -1.755985
     20          1           0        3.388820    4.094633   -0.314658
     21          6           0       -0.737287    0.390732    0.095281
     22          6           0       -1.609746    1.151269    0.880723
     23          6           0       -2.986313    0.908969    0.850692
     24          6           0       -3.458255   -0.106226    0.020065
     25          6           0       -2.614456   -0.881113   -0.774190
     26          6           0       -1.241538   -0.621248   -0.728216
     27          1           0        0.330646    0.585779    0.124803
     28          1           0       -1.220955    1.937829    1.521201
     29          1           0       -3.684201    1.482624    1.448431
     30          1           0       -3.031703   -1.658437   -1.402753
     31          1           0       -0.566329   -1.213478   -1.339282
     32          7           0       -4.913633   -0.372036   -0.020165
     33          8           0       -5.304356   -1.272129   -0.760304
     34          8           0       -5.636079    0.324747    0.689203
 ---------------------------------------------------------------------

 SCF Done:  E(RHF) =  -669.535460562     A.U. after   15 cycles
 E2 =    -0.2091371576D+01 EUMP2 =    -0.67162683213829D+03

 The electronic state is 1-A.
 Alpha  occ. eigenvalues --  -20.60749 -20.60743 -15.85802 -11.31171 -11.27739
 Alpha  occ. eigenvalues --  -11.27735 -11.27467 -11.26758 -11.26746 -11.22641
 Alpha  occ. eigenvalues --  -11.22568 -11.22474 -11.22311 -11.22078 -11.21754
 Alpha  occ. eigenvalues --   -1.59824  -1.39377  -1.19343  -1.09443  -1.08737
 Alpha  occ. eigenvalues --   -1.04746  -1.04459  -0.96905  -0.95574  -0.87913
 Alpha  occ. eigenvalues --   -0.86143  -0.82409  -0.80524  -0.79265  -0.77450
 Alpha  occ. eigenvalues --   -0.72020  -0.71147  -0.70483  -0.66084  -0.64995
 Alpha  occ. eigenvalues --   -0.64746  -0.62094  -0.61859  -0.60273  -0.58513
 Alpha  occ. eigenvalues --   -0.56220  -0.55264  -0.53559  -0.53317  -0.53074
 Alpha  occ. eigenvalues --   -0.52837  -0.50849  -0.48837  -0.48775  -0.48774
 Alpha  occ. eigenvalues --   -0.47569  -0.46793  -0.46705  -0.44782  -0.44734
 Alpha  occ. eigenvalues --   -0.37323  -0.36351
 Alpha virt. eigenvalues --    0.05076   0.11299   0.16537   0.18317   0.22780
 Alpha virt. eigenvalues --    0.23282   0.24970   0.26178   0.26720   0.27593
 Alpha virt. eigenvalues --    0.29739   0.30214   0.30898   0.31213   0.31690

 Mulliken charges:
               1
     1  C   -0.298447
     2  C   -0.299509
     3  C   -0.476234
     4  H    0.153803
     5  H    0.150308
     6  H    0.153619
     7  H    0.147049
     8  H    0.156547
     9  H    0.157271
    10  H    0.162485
    11  C   -0.303024
    12  C   -0.301003
    13  C   -0.476258
    14  H    0.154175
    15  H    0.139750
    16  H    0.157118
    17  H    0.151079
    18  H    0.148517
    19  H    0.159128
    20  H    0.164426
    21  C   -0.179394
    22  C   -0.220896
    23  C   -0.170569
    24  C    0.158325
    25  C   -0.170783
    26  C   -0.222011
    27  H    0.238638
    28  H    0.223988
    29  H    0.275524
    30  H    0.275642
    31  H    0.223651
    32  N    0.487971
    33  O   -0.460443
    34  O   -0.460442
 Sum of Mulliken charges =  -0.00000

 Dipole moment (field-independent basis, Debye):
    X=              5.3973    Y=              0.9446    Z=              0.1340  Tot=              5.4810
 Quadrupole moment (field-independent basis, Debye-Ang):
   XX=           -129.0505   YY=            -93.0397   ZZ=            -92.8084
   XY=             -3.8548   XZ=             -1.7681   YZ=              3.1529

 Normal termination of Gaussian 16 at Thu May  6 15:24:47 2021.
