 Gaussian 16, Revision A.03,
 Gaussian 16:  EM64L-G16RevA.03 25-Dec-2016

 -------------
 #p 6-31g* mp2
 -------------

 ------------------------------------------------------
 Input file generated by CHIRIPA (05-May-2021 14:55:18)
 ------------------------------------------------------
 Symbolic Z-matrix:
 Charge =  0 Multiplicity = 1

                         Standard orientation:
 ---------------------------------------------------------------------
 Center     Atomic      Atomic             Coordinates (Angstroms)
 Number     Number       Type             X           Y           Z
 ---------------------------------------------------------------------
      1          6           0       -5.071801   -0.795973    0.203133
      2          6           0       -4.134226   -1.102196    1.194950
      3          6           0       -2.808806   -0.673740    1.075627
      4          6           0       -2.453856    0.062314   -0.053764
      5          6           0       -3.364829    0.383338   -1.058931
      6          6           0       -4.684793   -0.055489   -0.918664
      7          1           0       -6.099300   -1.132836    0.303960
      8          1           0       -4.431948   -1.677107    2.067236
      9          1           0       -2.062534   -0.896754    1.828462
     10          1           0       -3.038189    0.958103   -1.917050
     11          1           0       -5.410785    0.183800   -1.690494
     12          7           0       -1.053582    0.521390   -0.191172
     13          8           0       -0.766077    1.168449   -1.195807
     14          8           0       -0.270066    0.225463    0.708365
     15          6           0        3.250370    0.705166   -0.234747
     16          6           0        3.010050    1.748824    0.856587
     17          6           0        2.638904    3.120255    0.291591
     18          1           0        4.049981    1.057630   -0.900582
     19          1           0        2.345995    0.615776   -0.852412
     20          1           0        3.914129    1.835219    1.472861
     21          1           0        2.211050    1.393748    1.520015
     22          1           0        1.724490    3.055690   -0.306972
     23          1           0        3.437245    3.499670   -0.354394
     24          1           0        2.471546    3.851047    1.088960
     25          6           0        3.622304   -0.670997    0.314407
     26          6           0        3.862623   -1.714654   -0.776927
     27          6           0        4.233770   -3.086086   -0.211930
     28          1           0        4.526678   -0.581605    0.932073
     29          1           0        2.822693   -1.023460    0.980242
     30          1           0        4.661624   -1.359577   -1.440354
     31          1           0        2.958545   -1.801050   -1.393200
     32          1           0        3.435428   -3.465500    0.434054
     33          1           0        5.148184   -3.021521    0.386632
     34          1           0        4.401127   -3.816876   -1.009298
 ---------------------------------------------------------------------

 SCF Done:  E(RHF) =  -669.537392935     A.U. after   15 cycles
 E2 =    -0.2092927417D+01 EUMP2 =    -0.67163032035222D+03

 The electronic state is 1-A.
 Alpha  occ. eigenvalues --  -20.61322 -20.61302 -15.86287 -11.31494 -11.28035
 Alpha  occ. eigenvalues --  -11.28031 -11.27750 -11.27012 -11.27002 -11.20396
 Alpha  occ. eigenvalues --  -11.20161 -11.19799 -11.19572 -11.19362 -11.19217
 Alpha  occ. eigenvalues --   -1.60330  -1.39891  -1.19643  -1.09072  -1.06750
 Alpha  occ. eigenvalues --   -1.05019  -1.01957  -0.95930  -0.94441  -0.86426
 Alpha  occ. eigenvalues --   -0.85470  -0.82771  -0.78086  -0.77840  -0.76499
 Alpha  occ. eigenvalues --   -0.72499  -0.71623  -0.70750  -0.65302  -0.65029
 Alpha  occ. eigenvalues --   -0.63352  -0.62366  -0.59346  -0.57875  -0.56051
 Alpha  occ. eigenvalues --   -0.55523  -0.53716  -0.53349  -0.53108  -0.51228
 Alpha  occ. eigenvalues --   -0.50870  -0.49301  -0.49271  -0.48311  -0.46393
 Alpha  occ. eigenvalues --   -0.45402  -0.45007  -0.44038  -0.43834  -0.42183
 Alpha  occ. eigenvalues --   -0.37614  -0.36613
 Alpha virt. eigenvalues --    0.04655   0.11045   0.16176   0.21169   0.24474
 Alpha virt. eigenvalues --    0.25931   0.27122   0.27903   0.28563   0.29028
 Alpha virt. eigenvalues --    0.29436   0.30809   0.32295   0.32894   0.33037

 Mulliken charges:
               1
     1  C   -0.170081
     2  C   -0.218602
     3  C   -0.170459
     4  C    0.158424
     5  C   -0.170157
     6  C   -0.218644
     7  H    0.226789
     8  H    0.224581
     9  H    0.276023
    10  H    0.276342
    11  H    0.224576
    12  N    0.490699
    13  O   -0.458605
    14  O   -0.459964
    15  C   -0.299461
    16  C   -0.299187
    17  C   -0.480953
    18  H    0.138807
    19  H    0.168842
    20  H    0.139187
    21  H    0.167399
    22  H    0.170431
    23  H    0.146594
    24  H    0.150353
    25  C   -0.299044
    26  C   -0.298373
    27  C   -0.474463
    28  H    0.141962
    29  H    0.155546
    30  H    0.148520
    31  H    0.151855
    32  H    0.152677
    33  H    0.152832
    34  H    0.155552
 Sum of Mulliken charges =  -0.00000

 Dipole moment (field-independent basis, Debye):
    X=             -5.5809    Y=             -1.6507    Z=              0.4523  Tot=              5.8374
 Quadrupole moment (field-independent basis, Debye-Ang):
   XX=            -71.7715   YY=            -96.8966   ZZ=            -91.3379
   XY=              3.6087   XZ=              0.0064   YZ=             -2.1687

 Normal termination of Gaussian 16 at Wed May  5 22:05:53 2021.
