 Gaussian 16, Revision A.03,
 Gaussian 16:  EM64L-G16RevA.03 25-Dec-2016

 -------------
 #p 6-31g* mp2
 -------------

 ------------------------------------------------------
 Input file generated by CHIRIPA (05-May-2021 14:53:16)
 ------------------------------------------------------
 Symbolic Z-matrix:
 Charge =  0 Multiplicity = 1

                         Standard orientation:
 ---------------------------------------------------------------------
 Center     Atomic      Atomic             Coordinates (Angstroms)
 Number     Number       Type             X           Y           Z
 ---------------------------------------------------------------------
      1          6           0        2.665741    1.576716   -0.264386
      2          6           0        1.264400    2.181859   -0.174785
      3          6           0        1.249129    3.683079   -0.464439
      4          1           0        3.327852    2.094801    0.442821
      5          1           0        3.073972    1.761682   -1.267646
      6          1           0        0.858385    1.994599    0.827563
      7          1           0        0.605502    1.662145   -0.882151
      8          1           0        1.629425    3.885096   -1.471000
      9          1           0        1.883745    4.219440    0.248429
     10          1           0        0.237558    4.095090   -0.394934
     11          6           0        2.697318    0.076600    0.022641
     12          6           0        4.098659   -0.528543   -0.066960
     13          6           0        4.113930   -2.029763    0.222694
     14          1           0        2.289087   -0.108366    1.025901
     15          1           0        2.035207   -0.441485   -0.684567
     16          1           0        4.757557   -0.008829    0.640406
     17          1           0        4.504674   -0.341284   -1.069309
     18          1           0        3.479314   -2.566124   -0.490174
     19          1           0        3.733634   -2.231781    1.229255
     20          1           0        5.125501   -2.441774    0.153188
     21          6           0       -0.467397   -2.566186   -0.076535
     22          6           0       -0.355192   -1.644529    0.969638
     23          6           0       -1.251405   -0.576633    1.074264
     24          6           0       -2.252290   -0.460173    0.110960
     25          6           0       -2.390079   -1.362089   -0.943009
     26          6           0       -1.482693   -2.422279   -1.027843
     27          1           0        0.233143   -3.392760   -0.150124
     28          1           0        0.432313   -1.753800    1.709868
     29          1           0       -1.187477    0.151314    1.873906
     30          1           0       -3.185511   -1.226928   -1.665808
     31          1           0       -1.572238   -3.136537   -1.841392
     32          7           0       -3.206986    0.666281    0.211247
     33          8           0       -4.079980    0.746733   -0.650174
     34          8           0       -3.064204    1.447414    1.149374
 ---------------------------------------------------------------------

 SCF Done:  E(RHF) =  -669.534558663     A.U. after   15 cycles
 E2 =    -0.2094260536D+01 EUMP2 =    -0.67162881919891D+03

 The electronic state is 1-A.
 Alpha  occ. eigenvalues --  -20.60762 -20.60756 -15.85813 -11.31175 -11.27725
 Alpha  occ. eigenvalues --  -11.27703 -11.27448 -11.26763 -11.26712 -11.22168
 Alpha  occ. eigenvalues --  -11.21914 -11.21840 -11.21692 -11.21618 -11.20949
 Alpha  occ. eigenvalues --   -1.59836  -1.39389  -1.19340  -1.08829  -1.08715
 Alpha  occ. eigenvalues --   -1.04739  -1.03877  -0.96337  -0.95571  -0.87360
 Alpha  occ. eigenvalues --   -0.86137  -0.82408  -0.79966  -0.78630  -0.77433
 Alpha  occ. eigenvalues --   -0.72032  -0.71157  -0.70438  -0.65461  -0.64985
 Alpha  occ. eigenvalues --   -0.64748  -0.62089  -0.61277  -0.59729  -0.57934
 Alpha  occ. eigenvalues --   -0.55650  -0.55235  -0.53236  -0.52922  -0.52880
 Alpha  occ. eigenvalues --   -0.52689  -0.50300  -0.48793  -0.48787  -0.48278
 Alpha  occ. eigenvalues --   -0.47005  -0.46127  -0.46025  -0.44791  -0.44112
 Alpha  occ. eigenvalues --   -0.37282  -0.36245
 Alpha virt. eigenvalues --    0.05036   0.11266   0.16436   0.19776   0.22981
 Alpha virt. eigenvalues --    0.23569   0.24691   0.26399   0.27162   0.28444
 Alpha virt. eigenvalues --    0.29118   0.29810   0.31288   0.31788   0.32009

 Mulliken charges:
               1
     1  C   -0.298741
     2  C   -0.299508
     3  C   -0.477167
     4  H    0.149870
     5  H    0.150496
     6  H    0.149195
     7  H    0.153464
     8  H    0.154318
     9  H    0.154326
    10  H    0.168482
    11  C   -0.298660
    12  C   -0.299348
    13  C   -0.476028
    14  H    0.140073
    15  H    0.153718
    16  H    0.153880
    17  H    0.154359
    18  H    0.150096
    19  H    0.149408
    20  H    0.164268
    21  C   -0.173750
    22  C   -0.211868
    23  C   -0.169045
    24  C    0.158297
    25  C   -0.172144
    26  C   -0.218892
    27  H    0.226557
    28  H    0.224219
    29  H    0.274751
    30  H    0.275315
    31  H    0.223244
    32  N    0.488077
    33  O   -0.460634
    34  O   -0.460628
 Sum of Mulliken charges =  -0.00000

 Dipole moment (field-independent basis, Debye):
    X=              3.3671    Y=             -3.8692    Z=             -0.4029  Tot=              5.1450
 Quadrupole moment (field-independent basis, Debye-Ang):
   XX=           -109.5289   YY=            -92.1666   ZZ=            -90.8126
   XY=              8.5364   XZ=              3.3635   YZ=              1.6428

 Normal termination of Gaussian 16 at Thu May  6 13:53:31 2021.
