 Gaussian 16, Revision A.03,
 Gaussian 16:  EM64L-G16RevA.03 25-Dec-2016

 -------------
 #p 6-31g* mp2
 -------------

 ------------------------------------------------------
 Input file generated by CHIRIPA (05-May-2021 14:51:13)
 ------------------------------------------------------
 Symbolic Z-matrix:
 Charge =  0 Multiplicity = 1

                         Standard orientation:
 ---------------------------------------------------------------------
 Center     Atomic      Atomic             Coordinates (Angstroms)
 Number     Number       Type             X           Y           Z
 ---------------------------------------------------------------------
      1          6           0       -2.068200   -0.999363   -0.088021
      2          6           0       -1.569010   -1.831029    1.093980
      3          6           0       -0.134635   -2.325621    0.904927
      4          1           0       -2.004251   -1.601406   -1.004755
      5          1           0       -1.398851   -0.139797   -0.231248
      6          1           0       -2.239892   -2.688011    1.235801
      7          1           0       -1.634334   -1.227001    2.008037
      8          1           0        0.551565   -1.480918    0.785724
      9          1           0       -0.057435   -2.950230    0.009101
     10          1           0        0.201983   -2.917904    1.761518
     11          6           0       -3.500595   -0.497740    0.086178
     12          6           0       -3.999785    0.333925   -1.095824
     13          6           0       -5.434160    0.828517   -0.906770
     14          1           0       -4.169944   -1.357306    0.229404
     15          1           0       -3.564544    0.104302    1.002911
     16          1           0       -3.934461   -0.270103   -2.009880
     17          1           0       -3.328902    1.190908   -1.237645
     18          1           0       -5.511360    1.453126   -0.010944
     19          1           0       -6.120359   -0.016185   -0.787567
     20          1           0       -5.770778    1.420800   -1.763362
     21          6           0        3.348886    0.247841    0.119558
     22          6           0        4.116689   -0.112967   -1.152559
     23          6           0        5.242823   -1.115632   -0.899027
     24          1           0        4.049453    0.660227    0.858536
     25          1           0        2.932794   -0.668489    0.560694
     26          1           0        4.530042    0.803941   -1.591915
     27          1           0        3.414181   -0.524364   -1.888663
     28          1           0        4.843667   -2.046030   -0.482331
     29          1           0        5.965869   -0.710178   -0.183896
     30          1           0        5.778509   -1.359502   -1.821756
     31          6           0        2.219909    1.249262   -0.117715
     32          6           0        1.452106    1.610071    1.154402
     33          6           0        0.325972    2.612736    0.900871
     34          1           0        2.636001    2.165593   -0.558851
     35          1           0        1.519342    0.836877   -0.856692
     36          1           0        2.154614    2.021467    1.890506
     37          1           0        1.038752    0.693163    1.593758
     38          1           0       -0.397074    2.207282    0.185739
     39          1           0        0.725128    3.543133    0.484174
     40          1           0       -0.209714    2.856606    1.823599
 ---------------------------------------------------------------------

 SCF Done:  E(RHF) =  -470.732684684     A.U. after   11 cycles
 E2 =    -0.1584732283D+01 EUMP2 =    -0.47231741696751D+03

 The electronic state is 1-A.
 Alpha  occ. eigenvalues --  -11.21654 -11.21648 -11.21624 -11.21587 -11.21441
 Alpha  occ. eigenvalues --  -11.21425 -11.21378 -11.21352 -11.21147 -11.21110
 Alpha  occ. eigenvalues --  -11.21078 -11.21048  -1.08505  -1.08424  -1.03597
 Alpha  occ. eigenvalues --   -1.03528  -0.96048  -0.95979  -0.87053  -0.87009
 Alpha  occ. eigenvalues --   -0.79637  -0.79620  -0.78287  -0.78268  -0.65428
 Alpha  occ. eigenvalues --   -0.64845  -0.61179  -0.60725  -0.59380  -0.59372
 Alpha  occ. eigenvalues --   -0.57635  -0.57615  -0.55516  -0.55124  -0.52717
 Alpha  occ. eigenvalues --   -0.52703  -0.52464  -0.52400  -0.50079  -0.49861
 Alpha  occ. eigenvalues --   -0.48018  -0.47904  -0.46723  -0.46661  -0.45990
 Alpha  occ. eigenvalues --   -0.45791  -0.45644  -0.45454  -0.43820  -0.43806
 Alpha virt. eigenvalues --    0.19166   0.22408   0.24015   0.24381   0.25796
 Alpha virt. eigenvalues --    0.26122   0.26846   0.27727   0.29114   0.29257
 Alpha virt. eigenvalues --    0.30844   0.31488   0.31689   0.31884   0.32254

 Mulliken charges:
               1
     1  C   -0.304754
     2  C   -0.299391
     3  C   -0.485856
     4  H    0.149657
     5  H    0.154983
     6  H    0.152457
     7  H    0.152258
     8  H    0.164566
     9  H    0.155281
    10  H    0.160500
    11  C   -0.298061
    12  C   -0.300254
    13  C   -0.475731
    14  H    0.149712
    15  H    0.150207
    16  H    0.151943
    17  H    0.152020
    18  H    0.155473
    19  H    0.155192
    20  H    0.160383
    21  C   -0.302746
    22  C   -0.299375
    23  C   -0.475906
    24  H    0.149783
    25  H    0.153704
    26  H    0.151747
    27  H    0.152330
    28  H    0.155784
    29  H    0.155028
    30  H    0.160171
    31  C   -0.300479
    32  C   -0.304805
    33  C   -0.479030
    34  H    0.150322
    35  H    0.150706
    36  H    0.152860
    37  H    0.155880
    38  H    0.157241
    39  H    0.155900
    40  H    0.160300
 Sum of Mulliken charges =  -0.00000

 Dipole moment (field-independent basis, Debye):
    X=              0.0022    Y=              0.0005    Z=              0.0054  Tot=              0.0058
 Quadrupole moment (field-independent basis, Debye-Ang):
   XX=            -85.9436   YY=            -84.1751   ZZ=            -84.5513
   XY=              1.8446   XZ=              0.2457   YZ=              0.5475

 Normal termination of Gaussian 16 at Wed May  5 16:51:55 2021.
