 Gaussian 16, Revision A.03,
 Gaussian 16:  EM64L-G16RevA.03 25-Dec-2016

 -------------
 #p 6-31g* mp2
 -------------

 ------------------------------------------------------
 Input file generated by CHIRIPA (05-May-2021 14:57:24)
 ------------------------------------------------------
 Symbolic Z-matrix:
 Charge =  0 Multiplicity = 1

                         Standard orientation:
 ---------------------------------------------------------------------
 Center     Atomic      Atomic             Coordinates (Angstroms)
 Number     Number       Type             X           Y           Z
 ---------------------------------------------------------------------
      1          6           0        3.293254   -2.187860   -0.851379
      2          6           0        4.284210   -1.236455   -1.114736
      3          6           0        4.150675    0.075212   -0.649713
      4          6           0        3.008104    0.402458    0.078800
      5          6           0        2.003420   -0.522860    0.357520
      6          6           0        2.158023   -1.828659   -0.117385
      7          1           0        3.405171   -3.204515   -1.216458
      8          1           0        5.166910   -1.512581   -1.684508
      9          1           0        4.902512    0.831690   -0.839186
     10          1           0        1.134720   -0.217748    0.928208
     11          1           0        1.386828   -2.565443    0.088652
     12          7           0        2.855585    1.787955    0.576330
     13          8           0        1.839506    2.051053    1.215863
     14          8           0        3.755006    2.584575    0.317341
     15          6           0       -2.099627   -1.594032    1.868168
     16          6           0       -1.806517   -1.906380    0.536611
     17          6           0       -2.318348   -1.126622   -0.504809
     18          6           0       -3.123500   -0.036839   -0.177100
     19          6           0       -3.433551    0.299954    1.139611
     20          6           0       -2.910778   -0.493801    2.164896
     21          1           0       -1.697774   -2.205203    2.670901
     22          1           0       -1.176846   -2.760241    0.303201
     23          1           0       -2.107333   -1.345850   -1.544439
     24          1           0       -4.064181    1.157366    1.341028
     25          1           0       -3.140077   -0.248861    3.198081
     26          7           0       -3.671144    0.796066   -1.271064
     27          8           0       -4.378000    1.750897   -0.955962
     28          8           0       -3.383163    0.478294   -2.422898
 ---------------------------------------------------------------------

 SCF Done:  E(RHF) =  -868.336996186     A.U. after   16 cycles
 E2 =    -0.2600647192D+01 EUMP2 =    -0.87093764337802D+03

 The electronic state is 1-A.
 Alpha  occ. eigenvalues --  -20.60953 -20.60944 -20.60929 -20.60912 -15.86011
 Alpha  occ. eigenvalues --  -15.85986 -11.31525 -11.31455 -11.28214 -11.28083
 Alpha  occ. eigenvalues --  -11.28056 -11.28043 -11.27986 -11.27862 -11.27355
 Alpha  occ. eigenvalues --  -11.27188 -11.27117 -11.27061  -1.60024  -1.59992
 Alpha  occ. eigenvalues --   -1.39576  -1.39542  -1.19752  -1.19659  -1.09121
 Alpha  occ. eigenvalues --   -1.09046  -1.05207  -1.05070  -0.95911  -0.95857
 Alpha  occ. eigenvalues --   -0.86599  -0.86477  -0.82774  -0.82671  -0.77809
 Alpha  occ. eigenvalues --   -0.77669  -0.72229  -0.72205  -0.71348  -0.71312
 Alpha  occ. eigenvalues --   -0.70857  -0.70770  -0.65415  -0.65403  -0.65311
 Alpha  occ. eigenvalues --   -0.64981  -0.62638  -0.62319  -0.55705  -0.55598
 Alpha  occ. eigenvalues --   -0.53526  -0.53434  -0.53351  -0.53054  -0.49000
 Alpha  occ. eigenvalues --   -0.48975  -0.48972  -0.48944  -0.44963  -0.44909
 Alpha  occ. eigenvalues --   -0.37755  -0.37655  -0.36914  -0.36557
 Alpha virt. eigenvalues --    0.04706   0.04929   0.10724   0.10960   0.16070
 Alpha virt. eigenvalues --    0.16396   0.19084   0.21987   0.24958   0.27763
 Alpha virt. eigenvalues --    0.28014   0.28503   0.29566   0.31702   0.32048

 Mulliken charges:
               1
     1  C   -0.170511
     2  C   -0.218585
     3  C   -0.169370
     4  C    0.159192
     5  C   -0.172418
     6  C   -0.220710
     7  H    0.225373
     8  H    0.224793
     9  H    0.277173
    10  H    0.277968
    11  H    0.213422
    12  N    0.488287
    13  O   -0.460159
    14  O   -0.459004
    15  C   -0.173859
    16  C   -0.226683
    17  C   -0.169248
    18  C    0.160161
    19  C   -0.166399
    20  C   -0.216333
    21  H    0.226047
    22  H    0.216363
    23  H    0.276487
    24  H    0.279500
    25  H    0.227362
    26  N    0.488493
    27  O   -0.457103
    28  O   -0.460240
 Sum of Mulliken charges =  -0.00000

 Dipole moment (field-independent basis, Debye):
    X=              2.3047    Y=             -7.5325    Z=              2.1175  Tot=              8.1568
 Quadrupole moment (field-independent basis, Debye-Ang):
   XX=           -108.2717   YY=           -108.0386   ZZ=           -104.1282
   XY=             -5.9372   XZ=            -22.0010   YZ=              1.0735

 Normal termination of Gaussian 16 at Fri May  7 00:20:04 2021.
