 Gaussian 16, Revision A.03,
 Gaussian 16:  EM64L-G16RevA.03 25-Dec-2016

 -------------
 #p 6-31g* mp2
 -------------

 ------------------------------------------------------
 Input file generated by CHIRIPA (05-May-2021 14:55:23)
 ------------------------------------------------------
 Symbolic Z-matrix:
 Charge =  0 Multiplicity = 1

                         Standard orientation:
 ---------------------------------------------------------------------
 Center     Atomic      Atomic             Coordinates (Angstroms)
 Number     Number       Type             X           Y           Z
 ---------------------------------------------------------------------
      1          6           0        0.447248   -0.988455    0.295714
      2          6           0        1.043520   -1.022964   -0.969113
      3          6           0        2.395375   -0.702800   -1.125740
      4          6           0        3.124504   -0.350930    0.009094
      5          6           0        2.559028   -0.307338    1.282525
      6          6           0        1.205568   -0.631382    1.415523
      7          1           0       -0.603529   -1.238673    0.408208
      8          1           0        0.457041   -1.299912   -1.840542
      9          1           0        2.882231   -0.721390   -2.093234
     10          1           0        3.169393   -0.027472    2.132554
     11          1           0        0.745140   -0.603730    2.399030
     12          7           0        4.556502   -0.009933   -0.144212
     13          8           0        5.177139    0.296865    0.871328
     14          8           0        5.031149   -0.055915   -1.277010
     15          6           0       -3.405929    1.144752   -0.375106
     16          6           0       -2.259502    1.772972    0.418008
     17          6           0       -1.687105    3.019671   -0.257195
     18          1           0       -3.048998    0.887156   -1.381679
     19          1           0       -4.202656    1.889857   -0.507159
     20          1           0       -1.465766    1.026479    0.549719
     21          1           0       -2.619152    2.028928    1.422874
     22          1           0       -2.461826    3.784290   -0.374521
     23          1           0       -1.301888    2.776145   -1.252637
     24          1           0       -0.868843    3.452570    0.326676
     25          6           0       -3.988614   -0.102499    0.287143
     26          6           0       -5.135040   -0.730720   -0.505972
     27          6           0       -5.707436   -1.977418    0.169232
     28          1           0       -3.191886   -0.847604    0.419196
     29          1           0       -4.345544    0.155097    1.293715
     30          1           0       -4.775391   -0.986675   -1.510838
     31          1           0       -5.928775    0.015774   -0.637683
     32          1           0       -6.092653   -1.733892    1.164673
     33          1           0       -4.932715   -2.742037    0.286557
     34          1           0       -6.525699   -2.410317   -0.414640
 ---------------------------------------------------------------------

 SCF Done:  E(RHF) =  -669.534645802     A.U. after   15 cycles
 E2 =    -0.2093015843D+01 EUMP2 =    -0.67162766164569D+03

 The electronic state is 1-A.
 Alpha  occ. eigenvalues --  -20.60791 -20.60786 -15.85846 -11.31230 -11.27807
 Alpha  occ. eigenvalues --  -11.27799 -11.27533 -11.26825 -11.26812 -11.22449
 Alpha  occ. eigenvalues --  -11.22390 -11.22273 -11.22185 -11.21816 -11.21581
 Alpha  occ. eigenvalues --   -1.59866  -1.39419  -1.19413  -1.09287  -1.08806
 Alpha  occ. eigenvalues --   -1.04813  -1.04264  -0.96714  -0.95642  -0.87723
 Alpha  occ. eigenvalues --   -0.86211  -0.82473  -0.80345  -0.79122  -0.77502
 Alpha  occ. eigenvalues --   -0.72064  -0.71190  -0.70571  -0.65926  -0.65064
 Alpha  occ. eigenvalues --   -0.64805  -0.62157  -0.61676  -0.60083  -0.58331
 Alpha  occ. eigenvalues --   -0.56027  -0.55340  -0.53366  -0.53186  -0.53095
 Alpha  occ. eigenvalues --   -0.52903  -0.50659  -0.48826  -0.48817  -0.48650
 Alpha  occ. eigenvalues --   -0.47398  -0.46620  -0.46566  -0.44821  -0.44552
 Alpha  occ. eigenvalues --   -0.37316  -0.36417
 Alpha virt. eigenvalues --    0.04989   0.11194   0.16368   0.19251   0.22835
 Alpha virt. eigenvalues --    0.23677   0.24864   0.26149   0.26997   0.27534
 Alpha virt. eigenvalues --    0.29956   0.30861   0.31063   0.31332   0.31600

 Mulliken charges:
               1
     1  C   -0.173868
     2  C   -0.222061
     3  C   -0.170436
     4  C    0.158601
     5  C   -0.170434
     6  C   -0.220052
     7  H    0.234084
     8  H    0.223660
     9  H    0.275831
    10  H    0.275890
    11  H    0.224905
    12  N    0.488007
    13  O   -0.460261
    14  O   -0.460295
    15  C   -0.298848
    16  C   -0.306610
    17  C   -0.474559
    18  H    0.147706
    19  H    0.153854
    20  H    0.151332
    21  H    0.151988
    22  H    0.156582
    23  H    0.155698
    24  H    0.163331
    25  C   -0.300661
    26  C   -0.299757
    27  C   -0.475965
    28  H    0.138878
    29  H    0.153093
    30  H    0.151565
    31  H    0.155749
    32  H    0.156844
    33  H    0.152898
    34  H    0.163310
 Sum of Mulliken charges =  -0.00000

 Dipole moment (field-independent basis, Debye):
    X=             -5.1309    Y=             -1.1326    Z=              0.5290  Tot=              5.2810
 Quadrupole moment (field-independent basis, Debye-Ang):
   XX=           -126.0384   YY=            -94.9116   ZZ=            -89.7552
   XY=             -2.9027   XZ=              1.9460   YZ=              1.3491

 Normal termination of Gaussian 16 at Thu May  6 20:49:03 2021.
