 Gaussian 16, Revision A.03,
 Gaussian 16:  EM64L-G16RevA.03 25-Dec-2016

 -------------
 #p 6-31g* mp2
 -------------

 ------------------------------------------------------
 Input file generated by CHIRIPA (05-May-2021 14:51:07)
 ------------------------------------------------------
 Symbolic Z-matrix:
 Charge =  0 Multiplicity = 1

                         Standard orientation:
 ---------------------------------------------------------------------
 Center     Atomic      Atomic             Coordinates (Angstroms)
 Number     Number       Type             X           Y           Z
 ---------------------------------------------------------------------
      1          6           0        3.592035    1.161968    0.159314
      2          6           0        2.214754    1.665904   -0.273269
      3          6           0        1.854465    3.013087    0.353695
      4          1           0        3.616975    1.076791    1.254334
      5          1           0        4.350368    1.908913   -0.113449
      6          1           0        1.459408    0.917609   -0.001012
      7          1           0        2.193027    1.749709   -1.367399
      8          1           0        2.586190    3.777140    0.071912
      9          1           0        1.848402    2.940313    1.446063
     10          1           0        0.865995    3.354580    0.030942
     11          6           0        3.966468   -0.183766   -0.459174
     12          6           0        5.343750   -0.687702   -0.026590
     13          6           0        5.704039   -2.034885   -0.653554
     14          1           0        3.208136   -0.930711   -0.186410
     15          1           0        3.941529   -0.098589   -1.554193
     16          1           0        5.365477   -0.771507    1.067540
     17          1           0        6.099096    0.060593   -0.298847
     18          1           0        5.710101   -1.962111   -1.745922
     19          1           0        4.972314   -2.798939   -0.371772
     20          1           0        6.692509   -2.376378   -0.330802
     21          6           0       -3.141592   -0.359504    0.549963
     22          6           0       -2.119519   -1.491946    0.445431
     23          6           0       -0.849229   -1.218016    1.251110
     24          1           0       -2.680284    0.575365    0.203322
     25          1           0       -3.402184   -0.206510    1.606410
     26          1           0       -1.861973   -1.643685   -0.610628
     27          1           0       -2.583374   -2.424265    0.792181
     28          1           0       -1.086457   -1.087758    2.311939
     29          1           0       -0.360958   -0.302742    0.901159
     30          1           0       -0.132344   -2.040233    1.162256
     31          6           0       -4.416912   -0.618698   -0.250103
     32          6           0       -5.438984    0.513745   -0.145571
     33          6           0       -6.709275    0.239814   -0.951251
     34          1           0       -4.156320   -0.771692   -1.306549
     35          1           0       -4.878220   -1.553567    0.096538
     36          1           0       -4.975130    1.446063   -0.492322
     37          1           0       -5.696532    0.665483    0.910488
     38          1           0       -7.197547   -0.675459   -0.601300
     39          1           0       -6.472046    0.109556   -2.012079
     40          1           0       -7.426160    1.062030   -0.862397
 ---------------------------------------------------------------------

 SCF Done:  E(RHF) =  -470.733364587     A.U. after   11 cycles
 E2 =    -0.1582543187D+01 EUMP2 =    -0.47231590777377D+03

 The electronic state is 1-A.
 Alpha  occ. eigenvalues --  -11.21632 -11.21610 -11.21583 -11.21580 -11.21421
 Alpha  occ. eigenvalues --  -11.21383 -11.21361 -11.21323 -11.21117 -11.21077
 Alpha  occ. eigenvalues --  -11.21073 -11.21058  -1.08450  -1.08411  -1.03560
 Alpha  occ. eigenvalues --   -1.03513  -0.96008  -0.95964  -0.87031  -0.86976
 Alpha  occ. eigenvalues --   -0.79652  -0.79550  -0.78272  -0.78214  -0.65124
 Alpha  occ. eigenvalues --   -0.65007  -0.61066  -0.60820  -0.59374  -0.59335
 Alpha  occ. eigenvalues --   -0.57637  -0.57557  -0.55340  -0.55214  -0.52705
 Alpha  occ. eigenvalues --   -0.52661  -0.52451  -0.52377  -0.50052  -0.49837
 Alpha  occ. eigenvalues --   -0.48019  -0.47830  -0.46802  -0.46466  -0.45856
 Alpha  occ. eigenvalues --   -0.45755  -0.45738  -0.45539  -0.43807  -0.43769
 Alpha virt. eigenvalues --    0.21321   0.23085   0.23740   0.24631   0.26010
 Alpha virt. eigenvalues --    0.26777   0.27173   0.27431   0.28054   0.29171
 Alpha virt. eigenvalues --    0.30072   0.31626   0.31635   0.31851   0.31971

 Mulliken charges:
               1
     1  C   -0.297473
     2  C   -0.308882
     3  C   -0.475302
     4  H    0.149924
     5  H    0.149392
     6  H    0.159909
     7  H    0.151713
     8  H    0.155354
     9  H    0.155523
    10  H    0.159551
    11  C   -0.298731
    12  C   -0.299680
    13  C   -0.475681
    14  H    0.150241
    15  H    0.149390
    16  H    0.152067
    17  H    0.151837
    18  H    0.155087
    19  H    0.155153
    20  H    0.160201
    21  C   -0.298452
    22  C   -0.299171
    23  C   -0.483620
    24  H    0.149790
    25  H    0.149582
    26  H    0.152292
    27  H    0.152090
    28  H    0.155578
    29  H    0.162289
    30  H    0.159832
    31  C   -0.298365
    32  C   -0.299682
    33  C   -0.475725
    34  H    0.149643
    35  H    0.149676
    36  H    0.151994
    37  H    0.151954
    38  H    0.155185
    39  H    0.155217
    40  H    0.160300
 Sum of Mulliken charges =  -0.00000

 Dipole moment (field-independent basis, Debye):
    X=             -0.0145    Y=             -0.0044    Z=              0.0073  Tot=              0.0168
 Quadrupole moment (field-independent basis, Debye-Ang):
   XX=            -85.5556   YY=            -85.3307   ZZ=            -83.8955
   XY=              0.7432   XZ=             -1.0373   YZ=             -1.1487

 Normal termination of Gaussian 16 at Thu May  6 09:59:19 2021.
