 Gaussian 16, Revision A.03,
 Gaussian 16:  EM64L-G16RevA.03 25-Dec-2016

 -------------
 #p 6-31g* mp2
 -------------

 ------------------------------------------------------
 Input file generated by CHIRIPA (05-May-2021 14:53:16)
 ------------------------------------------------------
 Symbolic Z-matrix:
 Charge =  0 Multiplicity = 1

                         Standard orientation:
 ---------------------------------------------------------------------
 Center     Atomic      Atomic             Coordinates (Angstroms)
 Number     Number       Type             X           Y           Z
 ---------------------------------------------------------------------
      1          6           0        3.459143   -0.362808    0.337070
      2          6           0        4.282208    0.192275   -0.825872
      3          6           0        5.457381    1.052728   -0.360701
      4          1           0        3.085753    0.472447    0.945243
      5          1           0        4.113785   -0.956636    0.989916
      6          1           0        3.625918    0.783736   -1.477080
      7          1           0        4.653523   -0.644391   -1.431456
      8          1           0        6.135102    0.469916    0.271458
      9          1           0        5.101659    1.906158    0.225575
     10          1           0        6.032154    1.439232   -1.208115
     11          6           0        2.280750   -1.225063   -0.111965
     12          6           0        1.457685   -1.780145    1.050977
     13          6           0        0.282512   -2.640598    0.585806
     14          1           0        1.626108   -0.631235   -0.764811
     15          1           0        2.654140   -2.060317   -0.720138
     16          1           0        1.086370   -0.943480    1.656561
     17          1           0        2.113975   -2.371607    1.702185
     18          1           0        0.638234   -3.494028   -0.000470
     19          1           0       -0.395209   -2.057787   -0.046353
     20          1           0       -0.292261   -3.027102    1.433220
     21          6           0       -0.993777    2.688236    0.640755
     22          6           0       -1.645726    1.893487    1.589363
     23          6           0       -2.340456    0.745463    1.197012
     24          6           0       -2.362833    0.420337   -0.158378
     25          6           0       -1.723195    1.191869   -1.127344
     26          6           0       -1.034521    2.335512   -0.712186
     27          1           0       -0.456447    3.578346    0.954400
     28          1           0       -1.615768    2.164984    2.640761
     29          1           0       -2.853921    0.112285    1.910355
     30          1           0       -1.770810    0.895594   -2.168195
     31          1           0       -0.529125    2.950848   -1.451092
     32          7           0       -3.095107   -0.792705   -0.585815
     33          8           0       -3.099833   -1.057499   -1.786022
     34          8           0       -3.650473   -1.455724    0.287461
 ---------------------------------------------------------------------

 SCF Done:  E(RHF) =  -669.535723228     A.U. after   15 cycles
 E2 =    -0.2092790878D+01 EUMP2 =    -0.67162851410623D+03

 The electronic state is 1-A.
 Alpha  occ. eigenvalues --  -20.60825 -20.60820 -15.85873 -11.31278 -11.27859
 Alpha  occ. eigenvalues --  -11.27850 -11.27599 -11.26882 -11.26871 -11.21831
 Alpha  occ. eigenvalues --  -11.21543 -11.21521 -11.21377 -11.21344 -11.20788
 Alpha  occ. eigenvalues --   -1.59901  -1.39451  -1.19460  -1.08848  -1.08507
 Alpha  occ. eigenvalues --   -1.04863  -1.03577  -0.96013  -0.95674  -0.87023
 Alpha  occ. eigenvalues --   -0.86257  -0.82501  -0.79649  -0.78314  -0.77543
 Alpha  occ. eigenvalues --   -0.72093  -0.71249  -0.70556  -0.65145  -0.65109
 Alpha  occ. eigenvalues --   -0.64860  -0.62206  -0.60986  -0.59392  -0.57621
 Alpha  occ. eigenvalues --   -0.55371  -0.55305  -0.53175  -0.52951  -0.52687
 Alpha  occ. eigenvalues --   -0.52430  -0.49966  -0.48857  -0.48846  -0.47956
 Alpha  occ. eigenvalues --   -0.46705  -0.45847  -0.45786  -0.44844  -0.43822
 Alpha  occ. eigenvalues --   -0.37419  -0.36456
 Alpha virt. eigenvalues --    0.04975   0.11172   0.16452   0.21301   0.22644
 Alpha virt. eigenvalues --    0.24056   0.26409   0.27069   0.27427   0.27809
 Alpha virt. eigenvalues --    0.28303   0.30660   0.31275   0.31702   0.31902

 Mulliken charges:
               1
     1  C   -0.297525
     2  C   -0.299009
     3  C   -0.475336
     4  H    0.146037
     5  H    0.150136
     6  H    0.148587
     7  H    0.153864
     8  H    0.156446
     9  H    0.152293
    10  H    0.160304
    11  C   -0.297988
    12  C   -0.300462
    13  C   -0.474566
    14  H    0.148364
    15  H    0.151101
    16  H    0.148585
    17  H    0.151074
    18  H    0.157486
    19  H    0.153153
    20  H    0.163819
    21  C   -0.170929
    22  C   -0.218814
    23  C   -0.170355
    24  C    0.155724
    25  C   -0.172395
    26  C   -0.218555
    27  H    0.226054
    28  H    0.224057
    29  H    0.276298
    30  H    0.276387
    31  H    0.223982
    32  N    0.491211
    33  O   -0.460151
    34  O   -0.458876
 Sum of Mulliken charges =  -0.00000

 Dipole moment (field-independent basis, Debye):
    X=              2.4928    Y=              4.2181    Z=              1.5122  Tot=              5.1277
 Quadrupole moment (field-independent basis, Debye-Ang):
   XX=           -107.9213   YY=            -91.0950   ZZ=            -90.8283
   XY=             -9.9536   XZ=             -5.6276   YZ=             -1.1304

 Normal termination of Gaussian 16 at Wed May  5 20:21:55 2021.
