 Gaussian 16, Revision A.03,
 Gaussian 16:  EM64L-G16RevA.03 25-Dec-2016

 -------------
 #p 6-31g* mp2
 -------------

 ------------------------------------------------------
 Input file generated by CHIRIPA (05-May-2021 14:53:16)
 ------------------------------------------------------
 Symbolic Z-matrix:
 Charge =  0 Multiplicity = 1

                         Standard orientation:
 ---------------------------------------------------------------------
 Center     Atomic      Atomic             Coordinates (Angstroms)
 Number     Number       Type             X           Y           Z
 ---------------------------------------------------------------------
      1          6           0        2.703725    0.707060    0.655891
      2          6           0        2.364378    2.193924    0.546045
      3          6           0        1.495110    2.688883    1.702411
      4          1           0        1.771769    0.126370    0.690570
      5          1           0        3.220758    0.525497    1.608312
      6          1           0        1.849367    2.372862   -0.406509
      7          1           0        3.297252    2.771128    0.511431
      8          1           0        2.005338    2.539174    2.659414
      9          1           0        0.549227    2.138645    1.736258
     10          1           0        1.264521    3.754239    1.603898
     11          6           0        3.572224    0.197409   -0.492888
     12          6           0        3.911571   -1.289454   -0.383042
     13          6           0        4.780840   -1.784413   -1.539408
     14          1           0        3.055191    0.378973   -1.445309
     15          1           0        4.504180    0.778100   -0.527567
     16          1           0        2.978698   -1.866658   -0.348428
     17          1           0        4.426582   -1.468392    0.569512
     18          1           0        5.726722   -1.234176   -1.573255
     19          1           0        4.270611   -1.634704   -2.496411
     20          1           0        5.011428   -2.849770   -1.440895
     21          6           0       -3.444134    1.571474   -1.358239
     22          6           0       -4.268124    0.540352   -0.895259
     23          6           0       -3.729039   -0.531067   -0.176931
     24          6           0       -2.355582   -0.539389    0.061481
     25          6           0       -1.508502    0.473008   -0.386621
     26          6           0       -2.069377    1.534576   -1.102893
     27          1           0       -3.871372    2.399951   -1.915455
     28          1           0       -5.336126    0.566377   -1.092085
     29          1           0       -4.343898   -1.342503    0.193118
     30          1           0       -0.447522    0.419350   -0.174827
     31          1           0       -1.427040    2.333976   -1.461231
     32          7           0       -1.773343   -1.668437    0.820854
     33          8           0       -0.560241   -1.652370    1.017733
     34          8           0       -2.541111   -2.548075    1.204792
 ---------------------------------------------------------------------

 SCF Done:  E(RHF) =  -669.535693258     A.U. after   15 cycles
 E2 =    -0.2092950035D+01 EUMP2 =    -0.67162864329251D+03

 The electronic state is 1-A.
 Alpha  occ. eigenvalues --  -20.60913 -20.60905 -15.85951 -11.31270 -11.27830
 Alpha  occ. eigenvalues --  -11.27814 -11.27564 -11.26844 -11.26831 -11.21825
 Alpha  occ. eigenvalues --  -11.21265 -11.21230 -11.21163 -11.21126 -11.20738
 Alpha  occ. eigenvalues --   -1.59977  -1.39534  -1.19439  -1.08842  -1.08313
 Alpha  occ. eigenvalues --   -1.04836  -1.03436  -0.95877  -0.95686  -0.86900
 Alpha  occ. eigenvalues --   -0.86239  -0.82519  -0.79497  -0.78087  -0.77551
 Alpha  occ. eigenvalues --   -0.72176  -0.71292  -0.70562  -0.65143  -0.65092
 Alpha  occ. eigenvalues --   -0.64707  -0.62203  -0.60798  -0.59261  -0.57463
 Alpha  occ. eigenvalues --   -0.55335  -0.55186  -0.53163  -0.52931  -0.52595
 Alpha  occ. eigenvalues --   -0.52283  -0.49856  -0.48949  -0.48920  -0.47793
 Alpha  occ. eigenvalues --   -0.46534  -0.45606  -0.45462  -0.44941  -0.43663
 Alpha  occ. eigenvalues --   -0.37416  -0.36428
 Alpha virt. eigenvalues --    0.04928   0.11172   0.16439   0.19249   0.23110
 Alpha virt. eigenvalues --    0.24213   0.26194   0.26551   0.27907   0.28157
 Alpha virt. eigenvalues --    0.29477   0.30954   0.31492   0.31723   0.32377

 Mulliken charges:
               1
     1  C   -0.316003
     2  C   -0.301319
     3  C   -0.476938
     4  H    0.170595
     5  H    0.154232
     6  H    0.139329
     7  H    0.154467
     8  H    0.160578
     9  H    0.153878
    10  H    0.157619
    11  C   -0.297043
    12  C   -0.302380
    13  C   -0.475673
    14  H    0.143586
    15  H    0.148127
    16  H    0.163749
    17  H    0.152982
    18  H    0.152970
    19  H    0.152990
    20  H    0.161595
    21  C   -0.170214
    22  C   -0.218899
    23  C   -0.169681
    24  C    0.154847
    25  C   -0.174944
    26  C   -0.223281
    27  H    0.226086
    28  H    0.223823
    29  H    0.275820
    30  H    0.289162
    31  H    0.225299
    32  N    0.490406
    33  O   -0.466723
    34  O   -0.459040
 Sum of Mulliken charges =  -0.00000

 Dipole moment (field-independent basis, Debye):
    X=             -2.1002    Y=              3.8161    Z=             -2.5543  Tot=              5.0496
 Quadrupole moment (field-independent basis, Debye-Ang):
   XX=            -80.5652   YY=            -99.1601   ZZ=            -96.1201
   XY=             -6.0073   XZ=              7.2776   YZ=              1.1502

 Normal termination of Gaussian 16 at Wed May  5 18:44:31 2021.
