 Gaussian 16, Revision A.03,
 Gaussian 16:  EM64L-G16RevA.03 25-Dec-2016

 -------------
 #p 6-31g* mp2
 -------------

 ------------------------------------------------------
 Input file generated by CHIRIPA (05-May-2021 14:55:21)
 ------------------------------------------------------
 Symbolic Z-matrix:
 Charge =  0 Multiplicity = 1

                         Standard orientation:
 ---------------------------------------------------------------------
 Center     Atomic      Atomic             Coordinates (Angstroms)
 Number     Number       Type             X           Y           Z
 ---------------------------------------------------------------------
      1          6           0       -1.770006    1.356687    1.930247
      2          6           0       -1.257077    1.372478    0.629026
      3          6           0       -1.858484    0.614995   -0.380467
      4          6           0       -2.976392   -0.150353   -0.052114
      5          6           0       -3.510944   -0.186962    1.234822
      6          6           0       -2.893322    0.578389    2.228466
      7          1           0       -1.296520    1.948174    2.708289
      8          1           0       -0.384813    1.975981    0.394537
      9          1           0       -1.482134    0.608799   -1.396213
     10          1           0       -4.381707   -0.798397    1.438137
     11          1           0       -3.293844    0.564195    3.238132
     12          7           0       -3.621658   -0.956431   -1.112430
     13          8           0       -4.605482   -1.622402   -0.797454
     14          8           0       -3.131374   -0.907001   -2.238403
     15          6           0        3.596617   -0.610434    0.263754
     16          6           0        4.713970   -1.629248    0.036762
     17          6           0        4.545907   -2.889875    0.885506
     18          1           0        3.568900   -0.337035    1.327440
     19          1           0        2.629702   -1.080363    0.036514
     20          1           0        5.678600   -1.157118    0.263033
     21          1           0        4.739154   -1.900109   -1.026543
     22          1           0        3.597949   -3.386393    0.654315
     23          1           0        4.542733   -2.639181    1.951218
     24          1           0        5.355470   -3.604567    0.707515
     25          6           0        3.750696    0.655237   -0.577710
     26          6           0        2.633343    1.674052   -0.350717
     27          6           0        2.801407    2.934679   -1.199462
     28          1           0        4.717610    1.125167   -0.350470
     29          1           0        3.778412    0.381840   -1.641397
     30          1           0        2.608159    1.944912    0.712587
     31          1           0        1.668713    1.201921   -0.576989
     32          1           0        2.804580    2.683985   -2.265175
     33          1           0        3.749363    3.431198   -0.968272
     34          1           0        1.991842    3.649371   -1.021472
 ---------------------------------------------------------------------

 SCF Done:  E(RHF) =  -669.535391234     A.U. after   15 cycles
 E2 =    -0.2091481330D+01 EUMP2 =    -0.67162687256347D+03

 The electronic state is 1-A.
 Alpha  occ. eigenvalues --  -20.60749 -20.60744 -15.85801 -11.31158 -11.27723
 Alpha  occ. eigenvalues --  -11.27714 -11.27448 -11.26741 -11.26672 -11.22522
 Alpha  occ. eigenvalues --  -11.21993 -11.21930 -11.21897 -11.21822 -11.21315
 Alpha  occ. eigenvalues --   -1.59824  -1.39378  -1.19324  -1.09007  -1.08718
 Alpha  occ. eigenvalues --   -1.04728  -1.04112  -0.96529  -0.95558  -0.87544
 Alpha  occ. eigenvalues --   -0.86123  -0.82398  -0.80223  -0.78796  -0.77432
 Alpha  occ. eigenvalues --   -0.72019  -0.71147  -0.70433  -0.65647  -0.64973
 Alpha  occ. eigenvalues --   -0.64731  -0.62129  -0.61470  -0.59923  -0.58147
 Alpha  occ. eigenvalues --   -0.55791  -0.55221  -0.53254  -0.53062  -0.52945
 Alpha  occ. eigenvalues --   -0.52810  -0.50459  -0.48790  -0.48776  -0.48483
 Alpha  occ. eigenvalues --   -0.47242  -0.46321  -0.46223  -0.44786  -0.44348
 Alpha  occ. eigenvalues --   -0.37300  -0.36315
 Alpha virt. eigenvalues --    0.05074   0.11314   0.16498   0.20070   0.22586
 Alpha virt. eigenvalues --    0.23696   0.25678   0.25953   0.26941   0.28236
 Alpha virt. eigenvalues --    0.28860   0.30015   0.30847   0.31478   0.32087

 Mulliken charges:
               1
     1  C   -0.172470
     2  C   -0.221816
     3  C   -0.173945
     4  C    0.158763
     5  C   -0.171266
     6  C   -0.218339
     7  H    0.225632
     8  H    0.232909
     9  H    0.275074
    10  H    0.275440
    11  H    0.223232
    12  N    0.488113
    13  O   -0.460513
    14  O   -0.460700
    15  C   -0.299230
    16  C   -0.300264
    17  C   -0.476213
    18  H    0.148221
    19  H    0.151847
    20  H    0.152092
    21  H    0.153960
    22  H    0.157155
    23  H    0.154431
    24  H    0.161767
    25  C   -0.298055
    26  C   -0.305061
    27  C   -0.477504
    28  H    0.151536
    29  H    0.153150
    30  H    0.149003
    31  H    0.147531
    32  H    0.160009
    33  H    0.159537
    34  H    0.155974
 Sum of Mulliken charges =  -0.00000

 Dipole moment (field-independent basis, Debye):
    X=              2.4442    Y=              2.7928    Z=              3.7132  Tot=              5.2500
 Quadrupole moment (field-independent basis, Debye-Ang):
   XX=           -105.5962   YY=            -96.4700   ZZ=            -92.9893
   XY=             -7.3462   XZ=            -13.7470   YZ=             -1.0997

 Normal termination of Gaussian 16 at Thu May  6 14:09:23 2021.
