 Gaussian 16, Revision A.03,
 Gaussian 16:  EM64L-G16RevA.03 25-Dec-2016

 -------------
 #p 6-31g* mp2
 -------------

 ------------------------------------------------------
 Input file generated by CHIRIPA (05-May-2021 14:57:25)
 ------------------------------------------------------
 Symbolic Z-matrix:
 Charge =  0 Multiplicity = 1

                         Standard orientation:
 ---------------------------------------------------------------------
 Center     Atomic      Atomic             Coordinates (Angstroms)
 Number     Number       Type             X           Y           Z
 ---------------------------------------------------------------------
      1          6           0       -1.996631    2.244505    0.777927
      2          6           0       -2.491618    2.146546   -0.526646
      3          6           0       -3.185005    1.004771   -0.939093
      4          6           0       -3.366108   -0.024698   -0.016768
      5          6           0       -2.884991    0.043120    1.289838
      6          6           0       -2.194548    1.194330    1.680415
      7          1           0       -1.459134    3.135128    1.089831
      8          1           0       -2.339401    2.960568   -1.229671
      9          1           0       -3.578842    0.902657   -1.943027
     10          1           0       -3.052407   -0.784754    1.968082
     11          1           0       -1.811249    1.267652    2.694195
     12          7           0       -4.098607   -1.238439   -0.441830
     13          8           0       -4.244922   -2.131542    0.389792
     14          8           0       -4.512555   -1.273683   -1.598568
     15          6           0        5.758813   -0.293956   -0.239084
     16          6           0        5.041496   -1.386059    0.260203
     17          6           0        3.648643   -1.331484    0.367587
     18          6           0        3.002394   -0.163874   -0.035325
     19          6           0        3.689028    0.940835   -0.536767
     20          6           0        5.081485    0.863963   -0.635277
     21          1           0        6.840660   -0.345012   -0.319055
     22          1           0        5.564873   -2.286604    0.568648
     23          1           0        3.068571   -2.162289    0.750598
     24          1           0        3.139436    1.824952   -0.836272
     25          1           0        5.635970    1.713642   -1.023398
     26          7           0        1.528053   -0.094296    0.073659
     27          8           0        0.982230    0.945846   -0.288034
     28          8           0        0.946204   -1.081218    0.518712
 ---------------------------------------------------------------------

 SCF Done:  E(RHF) =  -868.337821113     A.U. after   16 cycles
 E2 =    -0.2600355422D+01 EUMP2 =    -0.87093817653480D+03

 The electronic state is 1-A.
 Alpha  occ. eigenvalues --  -20.61228 -20.61188 -20.59455 -20.59445 -15.86253
 Alpha  occ. eigenvalues --  -15.84499 -11.31560 -11.29541 -11.28146 -11.28095
 Alpha  occ. eigenvalues --  -11.27839 -11.27129 -11.27095 -11.26165 -11.26135
 Alpha  occ. eigenvalues --  -11.25866 -11.25103 -11.25074  -1.60279  -1.58531
 Alpha  occ. eigenvalues --   -1.39838  -1.38096  -1.19725  -1.17696  -1.09128
 Alpha  occ. eigenvalues --   -1.07162  -1.05118  -1.03101  -0.95975  -0.94061
 Alpha  occ. eigenvalues --   -0.86518  -0.84543  -0.82811  -0.80936  -0.77868
 Alpha  occ. eigenvalues --   -0.76011  -0.72481  -0.71606  -0.70829  -0.70743
 Alpha  occ. eigenvalues --   -0.69837  -0.68904  -0.65379  -0.65117  -0.63407
 Alpha  occ. eigenvalues --   -0.63188  -0.62467  -0.60517  -0.55618  -0.53679
 Alpha  occ. eigenvalues --   -0.53451  -0.53208  -0.51498  -0.51271  -0.49228
 Alpha  occ. eigenvalues --   -0.49057  -0.47502  -0.47467  -0.45262  -0.43578
 Alpha  occ. eigenvalues --   -0.37702  -0.36720  -0.35542  -0.34637
 Alpha virt. eigenvalues --    0.04649   0.06575   0.10935   0.13000   0.16164
 Alpha virt. eigenvalues --    0.18148   0.21095   0.22826   0.27000   0.27980
 Alpha virt. eigenvalues --    0.28684   0.29699   0.30661   0.32172   0.32303

 Mulliken charges:
               1
     1  C   -0.151046
     2  C   -0.211900
     3  C   -0.170561
     4  C    0.159086
     5  C   -0.161564
     6  C   -0.213421
     7  H    0.218115
     8  H    0.215689
     9  H    0.269358
    10  H    0.270919
    11  H    0.215852
    12  N    0.488533
    13  O   -0.464116
    14  O   -0.466175
    15  C   -0.170512
    16  C   -0.218418
    17  C   -0.170730
    18  C    0.158066
    19  C   -0.171416
    20  C   -0.218369
    21  H    0.226800
    22  H    0.225113
    23  H    0.277256
    24  H    0.272799
    25  H    0.223688
    26  N    0.488461
    27  O   -0.464058
    28  O   -0.457450
 Sum of Mulliken charges =  -0.00000

 Dipole moment (field-independent basis, Debye):
    X=              8.1693    Y=              3.9988    Z=              1.1731  Tot=              9.1708
 Quadrupole moment (field-independent basis, Debye-Ang):
   XX=            -93.2916   YY=           -100.7571   ZZ=           -101.1950
   XY=            -16.5655   XZ=             -6.0347   YZ=             -4.1735

 Normal termination of Gaussian 16 at Fri May  7 11:12:16 2021.
