 Gaussian 16, Revision A.03,
 Gaussian 16:  EM64L-G16RevA.03 25-Dec-2016

 -------------
 #p 6-31g* mp2
 -------------

 ------------------------------------------------------
 Input file generated by CHIRIPA (05-May-2021 14:51:13)
 ------------------------------------------------------
 Symbolic Z-matrix:
 Charge =  0 Multiplicity = 1

                         Standard orientation:
 ---------------------------------------------------------------------
 Center     Atomic      Atomic             Coordinates (Angstroms)
 Number     Number       Type             X           Y           Z
 ---------------------------------------------------------------------
      1          6           0        1.934381   -0.888627    0.567658
      2          6           0        1.301918   -2.280661    0.552934
      3          6           0        0.163199   -2.423314    1.563262
      4          1           0        2.309405   -0.673905    1.577706
      5          1           0        1.159244   -0.139081    0.356144
      6          1           0        2.078289   -3.027465    0.763046
      7          1           0        0.928528   -2.492170   -0.457244
      8          1           0       -0.631437   -1.700241    1.352737
      9          1           0        0.524857   -2.238578    2.579961
     10          1           0       -0.274557   -3.426049    1.535855
     11          6           0        3.074291   -0.730471   -0.436992
     12          6           0        3.706754    0.661563   -0.422267
     13          6           0        4.845473    0.804216   -1.432596
     14          1           0        3.849428   -1.480016   -0.225478
     15          1           0        2.699267   -0.945192   -1.447040
     16          1           0        4.080144    0.873073    0.587911
     17          1           0        2.930383    1.408368   -0.632380
     18          1           0        4.483815    0.619481   -2.449295
     19          1           0        5.640109    0.081144   -1.222071
     20          1           0        5.283229    1.806952   -1.405188
     21          6           0       -1.847886    0.975800    0.288030
     22          6           0       -1.627210    2.476243    0.482859
     23          6           0       -0.309710    2.792922    1.191167
     24          1           0       -1.827701    0.478463    1.267415
     25          1           0       -1.010669    0.561191   -0.290383
     26          1           0       -2.465289    2.888152    1.059548
     27          1           0       -1.648113    2.970091   -0.497087
     28          1           0        0.538945    2.409000    0.615851
     29          1           0       -0.282874    2.326595    2.181330
     30          1           0       -0.172249    3.871044    1.320080
     31          6           0       -3.160786    0.643298   -0.418697
     32          6           0       -3.381462   -0.857146   -0.613524
     33          6           0       -4.698962   -1.173826   -1.321834
     34          1           0       -3.998003    1.057905    0.159717
     35          1           0       -3.180971    1.140635   -1.398081
     36          1           0       -3.360558   -1.350995    0.366421
     37          1           0       -2.543383   -1.269054   -1.190214
     38          1           0       -4.725798   -0.707498   -2.311996
     39          1           0       -5.547617   -0.789903   -0.746516
     40          1           0       -4.836423   -2.251947   -1.450747
 ---------------------------------------------------------------------

 SCF Done:  E(RHF) =  -470.732158119     A.U. after   11 cycles
 E2 =    -0.1585356247D+01 EUMP2 =    -0.47231751436592D+03

 The electronic state is 1-A.
 Alpha  occ. eigenvalues --  -11.21659 -11.21655 -11.21604 -11.21522 -11.21479
 Alpha  occ. eigenvalues --  -11.21418 -11.21352 -11.21243 -11.21110 -11.21082
 Alpha  occ. eigenvalues --  -11.21070 -11.20908  -1.08528  -1.08363  -1.03584
 Alpha  occ. eigenvalues --   -1.03477  -0.96040  -0.95915  -0.87049  -0.86941
 Alpha  occ. eigenvalues --   -0.79668  -0.79559  -0.78508  -0.78021  -0.65243
 Alpha  occ. eigenvalues --   -0.64933  -0.60980  -0.60890  -0.59428  -0.59277
 Alpha  occ. eigenvalues --   -0.57720  -0.57464  -0.55356  -0.55187  -0.52722
 Alpha  occ. eigenvalues --   -0.52618  -0.52482  -0.52333  -0.50034  -0.49837
 Alpha  occ. eigenvalues --   -0.48059  -0.47873  -0.46868  -0.46677  -0.46245
 Alpha  occ. eigenvalues --   -0.45744  -0.45660  -0.44866  -0.43839  -0.43724
 Alpha virt. eigenvalues --    0.20636   0.22380   0.23600   0.24061   0.25339
 Alpha virt. eigenvalues --    0.25712   0.26690   0.27900   0.28944   0.29613
 Alpha virt. eigenvalues --    0.30722   0.31468   0.31656   0.31729   0.32033

 Mulliken charges:
               1
     1  C   -0.308679
     2  C   -0.298531
     3  C   -0.483930
     4  H    0.149404
     5  H    0.160569
     6  H    0.151510
     7  H    0.150564
     8  H    0.165313
     9  H    0.153768
    10  H    0.159195
    11  C   -0.297807
    12  C   -0.301991
    13  C   -0.475626
    14  H    0.149577
    15  H    0.148582
    16  H    0.152570
    17  H    0.152973
    18  H    0.154933
    19  H    0.155426
    20  H    0.160314
    21  C   -0.306248
    22  C   -0.299399
    23  C   -0.480332
    24  H    0.152968
    25  H    0.153253
    26  H    0.152248
    27  H    0.151677
    28  H    0.159542
    29  H    0.156011
    30  H    0.160401
    31  C   -0.297391
    32  C   -0.301525
    33  C   -0.475756
    34  H    0.149832
    35  H    0.149623
    36  H    0.153757
    37  H    0.151977
    38  H    0.155205
    39  H    0.155376
    40  H    0.160646
 Sum of Mulliken charges =  -0.00000

 Dipole moment (field-independent basis, Debye):
    X=             -0.0563    Y=              0.0450    Z=              0.0082  Tot=              0.0726
 Quadrupole moment (field-independent basis, Debye-Ang):
   XX=            -85.6001   YY=            -85.0484   ZZ=            -84.1838
   XY=             -0.6899   XZ=              0.1525   YZ=             -0.2133

 Normal termination of Gaussian 16 at Wed May  5 21:34:59 2021.
