 Gaussian 16, Revision A.03,
 Gaussian 16:  EM64L-G16RevA.03 25-Dec-2016

 -------------
 #p 6-31g* mp2
 -------------

 ------------------------------------------------------
 Input file generated by CHIRIPA (05-May-2021 14:57:21)
 ------------------------------------------------------
 Symbolic Z-matrix:
 Charge =  0 Multiplicity = 1

                         Standard orientation:
 ---------------------------------------------------------------------
 Center     Atomic      Atomic             Coordinates (Angstroms)
 Number     Number       Type             X           Y           Z
 ---------------------------------------------------------------------
      1          6           0        1.503215   -1.118615    0.045066
      2          6           0        2.380632   -1.452034   -0.991994
      3          6           0        3.685166   -0.949540   -1.007474
      4          6           0        4.080801   -0.112518    0.034715
      5          6           0        3.230030    0.237999    1.081909
      6          6           0        1.929962   -0.276148    1.076888
      7          1           0        0.491557   -1.513491    0.049128
      8          1           0        2.051947   -2.106088   -1.794630
      9          1           0        4.385098   -1.191494   -1.798025
     10          1           0        3.586470    0.892282    1.868218
     11          1           0        1.250715   -0.015516    1.883572
     12          7           0        5.459489    0.425618    0.029179
     13          8           0        5.783737    1.161102    0.958998
     14          8           0        6.189750    0.101736   -0.904875
     15          6           0       -4.530245   -2.202903    0.322544
     16          6           0       -5.509147   -1.214590    0.175880
     17          6           0       -5.145776    0.120676   -0.023046
     18          6           0       -3.788159    0.433630   -0.070255
     19          6           0       -2.789383   -0.528328    0.072478
     20          6           0       -3.175875   -1.857227    0.270467
     21          1           0       -4.821501   -3.237696    0.476711
     22          1           0       -6.561729   -1.480137    0.215891
     23          1           0       -5.882898    0.905844   -0.139582
     24          1           0       -1.748132   -0.232966    0.028033
     25          1           0       -2.413477   -2.622662    0.384054
     26          7           0       -3.391236    1.843847   -0.280353
     27          8           0       -2.188408    2.093681   -0.318094
     28          8           0       -4.290472    2.672638   -0.403308
 ---------------------------------------------------------------------

 SCF Done:  E(RHF) =  -868.336513241     A.U. after   16 cycles
 E2 =    -0.2600054738D+01 EUMP2 =    -0.87093656797830D+03

 The electronic state is 1-A.
 Alpha  occ. eigenvalues --  -20.61432 -20.61419 -20.60778 -20.60772 -15.86487
 Alpha  occ. eigenvalues --  -15.85832 -11.31986 -11.31292 -11.28666 -11.28505
 Alpha  occ. eigenvalues --  -11.28296 -11.27852 -11.27823 -11.27784 -11.27687
 Alpha  occ. eigenvalues --  -11.27527 -11.26967 -11.26932  -1.60501  -1.59849
 Alpha  occ. eigenvalues --   -1.40052  -1.39400  -1.20164  -1.19475  -1.09521
 Alpha  occ. eigenvalues --   -1.08892  -1.05608  -1.04878  -0.96342  -0.95710
 Alpha  occ. eigenvalues --   -0.86985  -0.86295  -0.83189  -0.82525  -0.78226
 Alpha  occ. eigenvalues --   -0.77523  -0.72701  -0.72053  -0.71829  -0.71312
 Alpha  occ. eigenvalues --   -0.71168  -0.70662  -0.65820  -0.65616  -0.65147
 Alpha  occ. eigenvalues --   -0.64901  -0.62970  -0.62216  -0.56087  -0.55495
 Alpha  occ. eigenvalues --   -0.53899  -0.53706  -0.53194  -0.52988  -0.49469
 Alpha  occ. eigenvalues --   -0.49450  -0.48820  -0.48799  -0.45430  -0.44784
 Alpha  occ. eigenvalues --   -0.38118  -0.37503  -0.37210  -0.36447
 Alpha virt. eigenvalues --    0.04340   0.04966   0.10451   0.11169   0.15818
 Alpha virt. eigenvalues --    0.16319   0.17908   0.22070   0.24698   0.26733
 Alpha virt. eigenvalues --    0.27513   0.29340   0.30153   0.31396   0.32703

 Mulliken charges:
               1
     1  C   -0.171364
     2  C   -0.217300
     3  C   -0.170354
     4  C    0.159857
     5  C   -0.169411
     6  C   -0.214907
     7  H    0.213564
     8  H    0.222753
     9  H    0.276381
    10  H    0.277772
    11  H    0.225128
    12  N    0.487971
    13  O   -0.458862
    14  O   -0.459956
    15  C   -0.170190
    16  C   -0.218192
    17  C   -0.169442
    18  C    0.160351
    19  C   -0.176942
    20  C   -0.219507
    21  H    0.227957
    22  H    0.226588
    23  H    0.278336
    24  H    0.271480
    25  H    0.218147
    26  N    0.487866
    27  O   -0.460591
    28  O   -0.457132
 Sum of Mulliken charges =  -0.00000

 Dipole moment (field-independent basis, Debye):
    X=             -6.3341    Y=             -6.7248    Z=              0.7689  Tot=              9.2701
 Quadrupole moment (field-independent basis, Debye-Ang):
   XX=           -127.6333   YY=           -108.3655   ZZ=           -102.2819
   XY=              9.3228   XZ=             -3.4600   YZ=              3.0021

 Normal termination of Gaussian 16 at Thu May  6 11:10:51 2021.
