 Gaussian 16, Revision A.03,
 Gaussian 16:  EM64L-G16RevA.03 25-Dec-2016

 -------------
 #p 6-31g* mp2
 -------------

 ------------------------------------------------------
 Input file generated by CHIRIPA (05-May-2021 14:57:21)
 ------------------------------------------------------
 Symbolic Z-matrix:
 Charge =  0 Multiplicity = 1

                         Standard orientation:
 ---------------------------------------------------------------------
 Center     Atomic      Atomic             Coordinates (Angstroms)
 Number     Number       Type             X           Y           Z
 ---------------------------------------------------------------------
      1          6           0        1.284276   -0.356273   -0.336984
      2          6           0        1.859688    0.860953    0.042202
      3          6           0        3.237804    0.958727    0.256173
      4          6           0        4.014181   -0.185781    0.081156
      5          6           0        3.470495   -1.412732   -0.296055
      6          6           0        2.090095   -1.487237   -0.504607
      7          1           0        0.212835   -0.423188   -0.501097
      8          1           0        1.236327    1.740911    0.173121
      9          1           0        3.709397    1.888535    0.550239
     10          1           0        4.117699   -2.272667   -0.418756
     11          1           0        1.645961   -2.433864   -0.799035
     12          7           0        5.474340   -0.094590    0.304809
     13          8           0        6.136539   -1.117467    0.144028
     14          8           0        5.928964    0.998037    0.636653
     15          6           0       -5.475853   -1.432388    0.850512
     16          6           0       -4.985931   -1.575175   -0.451836
     17          6           0       -4.042524   -0.676149   -0.958081
     18          6           0       -3.608955    0.358702   -0.130802
     19          6           0       -4.078136    0.527461    1.170997
     20          6           0       -5.021192   -0.383375    1.656351
     21          1           0       -6.208578   -2.135360    1.235660
     22          1           0       -5.337231   -2.388899   -1.079918
     23          1           0       -3.646531   -0.763310   -1.962575
     24          1           0       -3.709018    1.348666    1.773321
     25          1           0       -5.399920   -0.270034    2.668164
     26          7           0       -2.610397    1.316712   -0.655682
     27          8           0       -2.244400    2.219938    0.093228
     28          8           0       -2.212632    1.146236   -1.806055
 ---------------------------------------------------------------------

 SCF Done:  E(RHF) =  -868.339732911     A.U. after   16 cycles
 E2 =    -0.2598948914D+01 EUMP2 =    -0.87093868182456D+03

 The electronic state is 1-A.
 Alpha  occ. eigenvalues --  -20.62091 -20.62085 -20.60197 -20.60187 -15.87100
 Alpha  occ. eigenvalues --  -15.85241 -11.32190 -11.30462 -11.28726 -11.28700
 Alpha  occ. eigenvalues --  -11.28379 -11.27653 -11.27632 -11.27052 -11.26948
 Alpha  occ. eigenvalues --  -11.26656 -11.26049 -11.25812  -1.61169  -1.59273
 Alpha  occ. eigenvalues --   -1.40719  -1.38831  -1.20331  -1.18604  -1.09776
 Alpha  occ. eigenvalues --   -1.08012  -1.05680  -1.03978  -0.96652  -0.94880
 Alpha  occ. eigenvalues --   -0.87090  -0.85369  -0.83483  -0.81716  -0.78573
 Alpha  occ. eigenvalues --   -0.76792  -0.73304  -0.72523  -0.71462  -0.71413
 Alpha  occ. eigenvalues --   -0.70594  -0.69672  -0.65973  -0.65664  -0.64245
 Alpha  occ. eigenvalues --   -0.63944  -0.63024  -0.61320  -0.56173  -0.54453
 Alpha  occ. eigenvalues --   -0.54035  -0.53756  -0.52325  -0.52045  -0.50089
 Alpha  occ. eigenvalues --   -0.50052  -0.48227  -0.48206  -0.46159  -0.44269
 Alpha  occ. eigenvalues --   -0.38293  -0.37272  -0.36557  -0.35586
 Alpha virt. eigenvalues --    0.03901   0.05726   0.10377   0.12076   0.15441
 Alpha virt. eigenvalues --    0.17272   0.20587   0.22140   0.26538   0.27369
 Alpha virt. eigenvalues --    0.28179   0.28507   0.30377   0.31395   0.31970

 Mulliken charges:
               1
     1  C   -0.169226
     2  C   -0.221427
     3  C   -0.172533
     4  C    0.157972
     5  C   -0.172474
     6  C   -0.219606
     7  H    0.225560
     8  H    0.238511
     9  H    0.274574
    10  H    0.272369
    11  H    0.218727
    12  N    0.488144
    13  O   -0.463126
    14  O   -0.461435
    15  C   -0.169542
    16  C   -0.218465
    17  C   -0.173261
    18  C    0.154122
    19  C   -0.170515
    20  C   -0.218316
    21  H    0.229202
    22  H    0.226295
    23  H    0.276005
    24  H    0.277056
    25  H    0.226970
    26  N    0.484915
    27  O   -0.460459
    28  O   -0.460040
 Sum of Mulliken charges =  -0.00000

 Dipole moment (field-independent basis, Debye):
    X=             -9.1742    Y=             -3.6016    Z=              1.1164  Tot=              9.9189
 Quadrupole moment (field-independent basis, Debye-Ang):
   XX=           -121.6666   YY=           -101.7075   ZZ=           -102.2193
   XY=             10.9025   XZ=            -10.4854   YZ=              4.9459

 Normal termination of Gaussian 16 at Thu May  6 08:02:31 2021.
