 Gaussian 16, Revision A.03,
 Gaussian 16:  EM64L-G16RevA.03 25-Dec-2016

 -------------
 #p 6-31g* mp2
 -------------

 ------------------------------------------------------
 Input file generated by CHIRIPA (05-May-2021 14:57:26)
 ------------------------------------------------------
 Symbolic Z-matrix:
 Charge =  0 Multiplicity = 1

                         Standard orientation:
 ---------------------------------------------------------------------
 Center     Atomic      Atomic             Coordinates (Angstroms)
 Number     Number       Type             X           Y           Z
 ---------------------------------------------------------------------
      1          6           0        0.801230   -1.206240    1.571746
      2          6           0        1.124778    0.154232    1.602621
      3          6           0        2.196357    0.646423    0.851613
      4          6           0        2.926359   -0.254027    0.077288
      5          6           0        2.628741   -1.614925    0.025619
      6          6           0        1.552919   -2.084927    0.784731
      7          1           0       -0.032847   -1.579967    2.158296
      8          1           0        0.542756    0.838944    2.212921
      9          1           0        2.468668    1.694867    0.857065
     10          1           0        3.227372   -2.273124   -0.592308
     11          1           0        1.303935   -3.141990    0.758820
     12          7           0        4.063038    0.255288   -0.722060
     13          8           0        4.690599   -0.558572   -1.396179
     14          8           0        4.304883    1.458705   -0.659336
     15          6           0       -1.724055    2.575365    0.365273
     16          6           0       -1.985380    2.247032   -0.969053
     17          6           0       -2.547557    1.010222   -1.298910
     18          6           0       -2.837144    0.121665   -0.264552
     19          6           0       -2.588489    0.419610    1.074361
     20          6           0       -2.025911    1.662215    1.380931
     21          1           0       -1.287186    3.538400    0.612469
     22          1           0       -1.751987    2.954232   -1.759902
     23          1           0       -2.760200    0.730290   -2.323526
     24          1           0       -2.832023   -0.306058    1.840857
     25          1           0       -1.824046    1.914504    2.418065
     26          7           0       -3.432508   -1.190758   -0.601430
     27          8           0       -3.678451   -1.956105    0.328297
     28          8           0       -3.641936   -1.429238   -1.788824
 ---------------------------------------------------------------------

 SCF Done:  E(RHF) =  -868.335898371     A.U. after   16 cycles
 E2 =    -0.2603083949D+01 EUMP2 =    -0.87093898231993D+03

 The electronic state is 1-A.
 Alpha  occ. eigenvalues --  -20.61503 -20.61466 -20.60944 -20.60927 -15.86542
 Alpha  occ. eigenvalues --  -15.85989 -11.31960 -11.31321 -11.28610 -11.28456
 Alpha  occ. eigenvalues --  -11.28260 -11.27904 -11.27817 -11.27641 -11.27580
 Alpha  occ. eigenvalues --  -11.27467 -11.26912 -11.26824  -1.60560  -1.60014
 Alpha  occ. eigenvalues --   -1.40114  -1.39569  -1.20138  -1.19476  -1.09522
 Alpha  occ. eigenvalues --   -1.08882  -1.05576  -1.04872  -0.96347  -0.95723
 Alpha  occ. eigenvalues --   -0.86979  -0.86278  -0.83190  -0.82561  -0.78244
 Alpha  occ. eigenvalues --   -0.77615  -0.72759  -0.72209  -0.71884  -0.71337
 Alpha  occ. eigenvalues --   -0.71252  -0.70581  -0.65798  -0.65654  -0.65132
 Alpha  occ. eigenvalues --   -0.64886  -0.62925  -0.62231  -0.56039  -0.55388
 Alpha  occ. eigenvalues --   -0.54119  -0.53677  -0.53070  -0.52821  -0.49525
 Alpha  occ. eigenvalues --   -0.49508  -0.48970  -0.48959  -0.45510  -0.44983
 Alpha  occ. eigenvalues --   -0.38149  -0.37824  -0.36903  -0.36209
 Alpha virt. eigenvalues --    0.04234   0.04949   0.10277   0.11255   0.15742
 Alpha virt. eigenvalues --    0.16464   0.19287   0.22186   0.25545   0.25972
 Alpha virt. eigenvalues --    0.28321   0.28865   0.29763   0.31163   0.32648

 Mulliken charges:
               1
     1  C   -0.173230
     2  C   -0.206450
     3  C   -0.174326
     4  C    0.158719
     5  C   -0.171419
     6  C   -0.218217
     7  H    0.225479
     8  H    0.213070
     9  H    0.270770
    10  H    0.276667
    11  H    0.228229
    12  N    0.488023
    13  O   -0.458893
    14  O   -0.462950
    15  C   -0.170226
    16  C   -0.216064
    17  C   -0.168547
    18  C    0.161891
    19  C   -0.172435
    20  C   -0.225006
    21  H    0.227909
    22  H    0.228825
    23  H    0.279054
    24  H    0.271446
    25  H    0.219729
    26  N    0.487912
    27  O   -0.463784
    28  O   -0.456176
 Sum of Mulliken charges =  -0.00000

 Dipole moment (field-independent basis, Debye):
    X=             -2.0443    Y=              2.7900    Z=              3.7210  Tot=              5.0803
 Quadrupole moment (field-independent basis, Debye-Ang):
   XX=           -141.7090   YY=            -98.4961   ZZ=           -100.5556
   XY=            -18.4938   XZ=              3.9993   YZ=             -1.7708

 Normal termination of Gaussian 16 at Thu May  6 02:03:04 2021.
