 Gaussian 16, Revision A.03,
 Gaussian 16:  EM64L-G16RevA.03 25-Dec-2016

 -------------
 #p 6-31g* mp2
 -------------

 ------------------------------------------------------
 Input file generated by CHIRIPA (05-May-2021 14:55:25)
 ------------------------------------------------------
 Symbolic Z-matrix:
 Charge =  0 Multiplicity = 1

                         Standard orientation:
 ---------------------------------------------------------------------
 Center     Atomic      Atomic             Coordinates (Angstroms)
 Number     Number       Type             X           Y           Z
 ---------------------------------------------------------------------
      1          6           0       -4.347234    0.176650   -1.179149
      2          6           0       -3.851092    1.201646   -0.366901
      3          6           0       -2.738618    0.983701    0.451298
      4          6           0       -2.144163   -0.277073    0.432341
      5          6           0       -2.615016   -1.318448   -0.365861
      6          6           0       -3.728703   -1.077914   -1.176042
      7          1           0       -5.211902    0.354729   -1.811631
      8          1           0       -4.329435    2.176958   -0.367274
      9          1           0       -2.333817    1.759444    1.089872
     10          1           0       -2.116932   -2.280140   -0.343998
     11          1           0       -4.111843   -1.875803   -1.805822
     12          7           0       -0.965794   -0.519759    1.294287
     13          8           0       -0.460017   -1.639407    1.259443
     14          8           0       -0.570279    0.414268    1.988405
     15          6           0        2.545757    0.894378   -0.556261
     16          6           0        3.060351    2.233286   -0.026638
     17          6           0        2.154676    3.405859   -0.404292
     18          1           0        2.453329    0.950854   -1.649519
     19          1           0        1.533944    0.717972   -0.165734
     20          1           0        4.071435    2.406464   -0.416937
     21          1           0        3.151745    2.173554    1.065467
     22          1           0        1.147168    3.259707   -0.001592
     23          1           0        2.072084    3.493941   -1.492419
     24          1           0        2.541272    4.353135   -0.015612
     25          6           0        3.440476   -0.287463   -0.186861
     26          6           0        2.925881   -1.626372   -0.716483
     27          6           0        3.831556   -2.798944   -0.338830
     28          1           0        4.452289   -0.111057   -0.577388
     29          1           0        3.532903   -0.343939    0.906397
     30          1           0        2.834487   -1.566639   -1.808589
     31          1           0        1.914797   -1.799550   -0.326185
     32          1           0        3.914148   -2.887027    0.749297
     33          1           0        4.839065   -2.652792   -0.741529
     34          1           0        3.444961   -3.746221   -0.727510
 ---------------------------------------------------------------------

 SCF Done:  E(RHF) =  -669.536688613     A.U. after   15 cycles
 E2 =    -0.2092491907D+01 EUMP2 =    -0.67162918052055D+03

 The electronic state is 1-A.
 Alpha  occ. eigenvalues --  -20.61129 -20.61121 -15.86116 -11.31358 -11.27914
 Alpha  occ. eigenvalues --  -11.27909 -11.27638 -11.26902 -11.26892 -11.20772
 Alpha  occ. eigenvalues --  -11.20469 -11.20442 -11.20393 -11.20281 -11.20077
 Alpha  occ. eigenvalues --   -1.60169  -1.39727  -1.19520  -1.08942  -1.07432
 Alpha  occ. eigenvalues --   -1.04903  -1.02589  -0.95797  -0.95080  -0.86309
 Alpha  occ. eigenvalues --   -0.86103  -0.82635  -0.78670  -0.77702  -0.77259
 Alpha  occ. eigenvalues --   -0.72348  -0.71481  -0.70631  -0.65178  -0.64908
 Alpha  occ. eigenvalues --   -0.64014  -0.62253  -0.59963  -0.58463  -0.56697
 Alpha  occ. eigenvalues --   -0.55415  -0.54360  -0.53237  -0.52995  -0.51803
 Alpha  occ. eigenvalues --   -0.51527  -0.49131  -0.49110  -0.49012  -0.47034
 Alpha  occ. eigenvalues --   -0.45839  -0.44943  -0.44798  -0.44605  -0.42843
 Alpha  occ. eigenvalues --   -0.37492  -0.36498
 Alpha virt. eigenvalues --    0.04766   0.11149   0.16222   0.21214   0.23829
 Alpha virt. eigenvalues --    0.25151   0.27025   0.27230   0.28083   0.28590
 Alpha virt. eigenvalues --    0.28876   0.31039   0.31441   0.32428   0.32831

 Mulliken charges:
               1
     1  C   -0.170240
     2  C   -0.218459
     3  C   -0.170670
     4  C    0.157687
     5  C   -0.170243
     6  C   -0.218559
     7  H    0.226344
     8  H    0.224241
     9  H    0.275872
    10  H    0.276042
    11  H    0.224162
    12  N    0.487848
    13  O   -0.457939
    14  O   -0.458086
    15  C   -0.299396
    16  C   -0.298152
    17  C   -0.475690
    18  H    0.142723
    19  H    0.153711
    20  H    0.148332
    21  H    0.157956
    22  H    0.155161
    23  H    0.150694
    24  H    0.157620
    25  C   -0.296680
    26  C   -0.309557
    27  C   -0.474344
    28  H    0.143751
    29  H    0.156616
    30  H    0.142891
    31  H    0.171678
    32  H    0.158653
    33  H    0.149994
    34  H    0.156040
 Sum of Mulliken charges =  -0.00000

 Dipole moment (field-independent basis, Debye):
    X=             -4.4417    Y=              0.7885    Z=             -2.8186  Tot=              5.3193
 Quadrupole moment (field-independent basis, Debye-Ang):
   XX=            -78.1523   YY=            -92.2507   ZZ=            -96.9894
   XY=             -0.3902   XZ=              5.0065   YZ=              3.1347

 Normal termination of Gaussian 16 at Thu May  6 07:58:52 2021.
