 Gaussian 16, Revision A.03,
 Gaussian 16:  EM64L-G16RevA.03 25-Dec-2016

 -------------
 #p 6-31g* mp2
 -------------

 ------------------------------------------------------
 Input file generated by CHIRIPA (05-May-2021 14:51:09)
 ------------------------------------------------------
 Symbolic Z-matrix:
 Charge =  0 Multiplicity = 1

                         Standard orientation:
 ---------------------------------------------------------------------
 Center     Atomic      Atomic             Coordinates (Angstroms)
 Number     Number       Type             X           Y           Z
 ---------------------------------------------------------------------
      1          6           0        3.207179   -0.778020   -0.174512
      2          6           0        2.091447   -1.525752    0.556258
      3          6           0        1.941384   -2.972217    0.084016
      4          1           0        3.004316   -0.793592   -1.254118
      5          1           0        4.155463   -1.313150   -0.026909
      6          1           0        1.145796   -0.988614    0.408469
      7          1           0        2.296890   -1.508232    1.634267
      8          1           0        2.869948   -3.528893    0.246748
      9          1           0        1.712314   -3.006322   -0.986014
     10          1           0        1.138273   -3.488093    0.619503
     11          6           0        3.369473    0.669307    0.286609
     12          6           0        4.485204    1.417040   -0.444161
     13          6           0        4.635267    2.863505    0.028081
     14          1           0        2.421188    1.204438    0.139007
     15          1           0        3.572335    0.684880    1.366216
     16          1           0        4.279761    1.399520   -1.522169
     17          1           0        5.430856    0.879902   -0.296372
     18          1           0        4.864338    2.897610    1.098111
     19          1           0        3.706703    3.420181   -0.134650
     20          1           0        5.438378    3.379380   -0.507405
     21          6           0       -2.723027   -0.430586   -0.225459
     22          6           0       -3.074036   -1.892374    0.053739
     23          6           0       -1.933114   -2.850384   -0.290224
     24          1           0       -2.456579   -0.320129   -1.285531
     25          1           0       -1.828308   -0.158924    0.351665
     26          1           0       -3.968637   -2.160798   -0.522675
     27          1           0       -3.339864   -1.999327    1.113226
     28          1           0       -1.039231   -2.610672    0.294680
     29          1           0       -1.671576   -2.773061   -1.350516
     30          1           0       -2.205501   -3.889946   -0.082919
     31          6           0       -3.853625    0.539298    0.113363
     32          6           0       -3.502616    2.001087   -0.165836
     33          6           0       -4.643537    2.959095    0.178126
     34          1           0       -4.748343    0.267637   -0.463762
     35          1           0       -4.120073    0.428842    1.173433
     36          1           0       -3.236787    2.108040   -1.225323
     37          1           0       -2.608015    2.269510    0.410577
     38          1           0       -4.905075    2.881774    1.238419
     39          1           0       -5.537420    2.719385   -0.406777
     40          1           0       -4.371150    3.998658   -0.029177
 ---------------------------------------------------------------------

 SCF Done:  E(RHF) =  -470.732847972     A.U. after   11 cycles
 E2 =    -0.1583155258D+01 EUMP2 =    -0.47231600322965D+03

 The electronic state is 1-A.
 Alpha  occ. eigenvalues --  -11.21619 -11.21597 -11.21596 -11.21585 -11.21423
 Alpha  occ. eigenvalues --  -11.21399 -11.21364 -11.21340 -11.21083 -11.21068
 Alpha  occ. eigenvalues --  -11.20997 -11.20996  -1.08447  -1.08415  -1.03568
 Alpha  occ. eigenvalues --   -1.03481  -0.96044  -0.95900  -0.87074  -0.86901
 Alpha  occ. eigenvalues --   -0.79612  -0.79564  -0.78278  -0.78217  -0.65119
 Alpha  occ. eigenvalues --   -0.65011  -0.61054  -0.60834  -0.59387  -0.59319
 Alpha  occ. eigenvalues --   -0.57735  -0.57458  -0.55345  -0.55158  -0.52808
 Alpha  occ. eigenvalues --   -0.52621  -0.52458  -0.52216  -0.49931  -0.49848
 Alpha  occ. eigenvalues --   -0.47907  -0.47872  -0.46698  -0.46548  -0.45885
 Alpha  occ. eigenvalues --   -0.45758  -0.45753  -0.45559  -0.43820  -0.43729
 Alpha virt. eigenvalues --    0.21130   0.23144   0.23456   0.24923   0.25529
 Alpha virt. eigenvalues --    0.26743   0.26897   0.27249   0.28422   0.29265
 Alpha virt. eigenvalues --    0.30376   0.30979   0.31501   0.31947   0.32041

 Mulliken charges:
               1
     1  C   -0.297903
     2  C   -0.304720
     3  C   -0.477492
     4  H    0.149915
     5  H    0.149678
     6  H    0.154674
     7  H    0.151552
     8  H    0.155085
     9  H    0.156360
    10  H    0.162322
    11  C   -0.298412
    12  C   -0.299647
    13  C   -0.475726
    14  H    0.149579
    15  H    0.149463
    16  H    0.152014
    17  H    0.151929
    18  H    0.155104
    19  H    0.155219
    20  H    0.160252
    21  C   -0.300139
    22  C   -0.299629
    23  C   -0.481873
    24  H    0.149336
    25  H    0.150615
    26  H    0.151718
    27  H    0.151700
    28  H    0.164428
    29  H    0.154617
    30  H    0.159654
    31  C   -0.298210
    32  C   -0.299699
    33  C   -0.475705
    34  H    0.149742
    35  H    0.149805
    36  H    0.151775
    37  H    0.151834
    38  H    0.155285
    39  H    0.155230
    40  H    0.160269
 Sum of Mulliken charges =  -0.00000

 Dipole moment (field-independent basis, Debye):
    X=              0.0043    Y=             -0.0129    Z=             -0.0027  Tot=              0.0139
 Quadrupole moment (field-independent basis, Debye-Ang):
   XX=            -84.8730   YY=            -86.4741   ZZ=            -83.4470
   XY=              0.1519   XZ=              0.8914   YZ=             -0.5433

 Normal termination of Gaussian 16 at Wed May  5 21:22:23 2021.
