 Gaussian 16, Revision A.03,
 Gaussian 16:  EM64L-G16RevA.03 25-Dec-2016

 -------------
 #p 6-31g* mp2
 -------------

 ------------------------------------------------------
 Input file generated by CHIRIPA (05-May-2021 14:57:23)
 ------------------------------------------------------
 Symbolic Z-matrix:
 Charge =  0 Multiplicity = 1

                         Standard orientation:
 ---------------------------------------------------------------------
 Center     Atomic      Atomic             Coordinates (Angstroms)
 Number     Number       Type             X           Y           Z
 ---------------------------------------------------------------------
      1          6           0        4.779106   -2.239216    0.728780
      2          6           0        5.434902   -1.496839   -0.258807
      3          6           0        4.928960   -0.260437   -0.670974
      4          6           0        3.759797    0.205509   -0.071605
      5          6           0        3.083528   -0.510707    0.914794
      6          6           0        3.607577   -1.744653    1.311401
      7          1           0        5.179167   -3.198729    1.042917
      8          1           0        6.344906   -1.878445   -0.713026
      9          1           0        5.416463    0.334963   -1.433376
     10          1           0        2.178281   -0.104185    1.349174
     11          1           0        3.096161   -2.319025    2.078600
     12          7           0        3.214594    1.513132   -0.499712
     13          8           0        2.182965    1.901581    0.043874
     14          8           0        3.829217    2.124839   -1.370740
     15          6           0       -2.282840    1.852448    0.719669
     16          6           0       -3.646372    1.936203    1.020149
     17          6           0       -4.523723    0.921226    0.626925
     18          6           0       -4.001127   -0.168118   -0.068426
     19          6           0       -2.647642   -0.280404   -0.382687
     20          6           0       -1.788698    0.746362    0.020443
     21          1           0       -1.608442    2.645486    1.028983
     22          1           0       -4.032929    2.794031    1.563057
     23          1           0       -5.583767    0.960618    0.846410
     24          1           0       -2.291804   -1.147886   -0.925159
     25          1           0       -0.730228    0.678650   -0.214291
     26          7           0       -4.920196   -1.248869   -0.489958
     27          8           0       -4.434881   -2.198152   -1.101488
     28          8           0       -6.108475   -1.126215   -0.200843
 ---------------------------------------------------------------------

 SCF Done:  E(RHF) =  -868.339978978     A.U. after   16 cycles
 E2 =    -0.2598488857D+01 EUMP2 =    -0.87093846783529D+03

 The electronic state is 1-A.
 Alpha  occ. eigenvalues --  -20.61803 -20.61720 -20.60449 -20.60443 -15.86789
 Alpha  occ. eigenvalues --  -15.85496 -11.31914 -11.30724 -11.28483 -11.28417
 Alpha  occ. eigenvalues --  -11.28110 -11.27403 -11.27376 -11.27286 -11.27256
 Alpha  occ. eigenvalues --  -11.26865 -11.26244 -11.26109  -1.60816  -1.59528
 Alpha  occ. eigenvalues --   -1.40383  -1.39085  -1.20055  -1.18863  -1.09487
 Alpha  occ. eigenvalues --   -1.08256  -1.05421  -1.04244  -0.96366  -0.95124
 Alpha  occ. eigenvalues --   -0.86829  -0.85624  -0.83210  -0.81966  -0.78295
 Alpha  occ. eigenvalues --   -0.77053  -0.73019  -0.72120  -0.71715  -0.71152
 Alpha  occ. eigenvalues --   -0.70850  -0.69911  -0.65710  -0.65412  -0.64497
 Alpha  occ. eigenvalues --   -0.64199  -0.62776  -0.61587  -0.55910  -0.54657
 Alpha  occ. eigenvalues --   -0.53761  -0.53505  -0.52588  -0.52306  -0.49784
 Alpha  occ. eigenvalues --   -0.49735  -0.48482  -0.48458  -0.45828  -0.44523
 Alpha  occ. eigenvalues --   -0.38008  -0.37014  -0.36804  -0.35866
 Alpha virt. eigenvalues --    0.04188   0.05469   0.10628   0.11790   0.15725
 Alpha virt. eigenvalues --    0.17012   0.20541   0.22078   0.26126   0.27163
 Alpha virt. eigenvalues --    0.28446   0.28964   0.30343   0.31214   0.32379

 Mulliken charges:
               1
     1  C   -0.169782
     2  C   -0.218131
     3  C   -0.170374
     4  C    0.158273
     5  C   -0.173274
     6  C   -0.217967
     7  H    0.228802
     8  H    0.226241
     9  H    0.277070
    10  H    0.271739
    11  H    0.226293
    12  N    0.489741
    13  O   -0.471735
    14  O   -0.453868
    15  C   -0.172616
    16  C   -0.219232
    17  C   -0.172177
    18  C    0.158173
    19  C   -0.173104
    20  C   -0.226247
    21  H    0.234412
    22  H    0.222301
    23  H    0.273692
    24  H    0.272428
    25  H    0.235580
    26  N    0.488176
    27  O   -0.462679
    28  O   -0.461737
 Sum of Mulliken charges =  -0.00000

 Dipole moment (field-independent basis, Debye):
    X=              5.6338    Y=             -0.7808    Z=              2.9834  Tot=              6.4226
 Quadrupole moment (field-independent basis, Debye-Ang):
   XX=           -110.5817   YY=           -107.5374   ZZ=           -103.3925
   XY=            -35.3743   XZ=             -5.4572   YZ=              0.7222

 Normal termination of Gaussian 16 at Thu May  6 03:25:27 2021.
