 Gaussian 16, Revision A.03,
 Gaussian 16:  EM64L-G16RevA.03 25-Dec-2016

 -------------
 #p 6-31g* mp2
 -------------

 ------------------------------------------------------
 Input file generated by CHIRIPA (05-May-2021 14:55:21)
 ------------------------------------------------------
 Symbolic Z-matrix:
 Charge =  0 Multiplicity = 1

                         Standard orientation:
 ---------------------------------------------------------------------
 Center     Atomic      Atomic             Coordinates (Angstroms)
 Number     Number       Type             X           Y           Z
 ---------------------------------------------------------------------
      1          6           0       -4.538397    0.959670    0.390307
      2          6           0       -4.495786    0.044367   -0.666540
      3          6           0       -3.381264   -0.780085   -0.847284
      4          6           0       -2.322313   -0.662228    0.051616
      5          6           0       -2.334963    0.239908    1.114292
      6          6           0       -3.459751    1.054352    1.275789
      7          1           0       -5.408171    1.596236    0.523237
      8          1           0       -5.332022   -0.031340   -1.355760
      9          1           0       -3.321978   -1.497331   -1.656890
     10          1           0       -1.486031    0.292452    1.785092
     11          1           0       -3.490086    1.764281    2.097449
     12          7           0       -1.136985   -1.529741   -0.129542
     13          8           0       -0.216990   -1.406554    0.676109
     14          8           0       -1.150363   -2.316457   -1.073753
     15          6           0        3.354008   -0.072843   -0.253564
     16          6           0        4.467416   -0.675982    0.603484
     17          6           0        4.718545   -2.151942    0.293213
     18          1           0        2.428982   -0.644464   -0.096973
     19          1           0        3.615545   -0.186056   -1.314779
     20          1           0        4.204504   -0.560428    1.662796
     21          1           0        5.389852   -0.102740    0.444981
     22          1           0        5.005473   -2.281780   -0.755317
     23          1           0        3.813391   -2.742067    0.469418
     24          1           0        5.518300   -2.562924    0.917188
     25          6           0        3.091225    1.402127    0.044993
     26          6           0        1.977818    2.005264   -0.812055
     27          6           0        1.726688    3.481225   -0.501784
     28          1           0        2.829689    1.515338    1.106208
     29          1           0        4.016252    1.973747   -0.111598
     30          1           0        1.055382    1.432022   -0.653551
     31          1           0        2.240730    1.889710   -1.871366
     32          1           0        2.631842    4.071350   -0.677988
     33          1           0        1.439761    3.611062    0.546746
     34          1           0        0.926933    3.892207   -1.125759
 ---------------------------------------------------------------------

 SCF Done:  E(RHF) =  -669.536705713     A.U. after   15 cycles
 E2 =    -0.2091726878D+01 EUMP2 =    -0.67162843259034D+03

 The electronic state is 1-A.
 Alpha  occ. eigenvalues --  -20.61080 -20.61070 -15.86087 -11.31360 -11.27914
 Alpha  occ. eigenvalues --  -11.27906 -11.27637 -11.26907 -11.26897 -11.21000
 Alpha  occ. eigenvalues --  -11.20742 -11.20559 -11.20543 -11.20051 -11.19966
 Alpha  occ. eigenvalues --   -1.60121  -1.39680  -1.19518  -1.08933  -1.07497
 Alpha  occ. eigenvalues --   -1.04906  -1.02704  -0.95783  -0.95146  -0.86309
 Alpha  occ. eigenvalues --   -0.86168  -0.82619  -0.78795  -0.77683  -0.77246
 Alpha  occ. eigenvalues --   -0.72312  -0.71425  -0.70626  -0.65177  -0.64908
 Alpha  occ. eigenvalues --   -0.64112  -0.62254  -0.60103  -0.58556  -0.56751
 Alpha  occ. eigenvalues --   -0.55412  -0.54429  -0.53237  -0.52997  -0.51907
 Alpha  occ. eigenvalues --   -0.51570  -0.49201  -0.49066  -0.48964  -0.47109
 Alpha  occ. eigenvalues --   -0.45843  -0.45314  -0.44813  -0.44375  -0.42909
 Alpha  occ. eigenvalues --   -0.37490  -0.36501
 Alpha virt. eigenvalues --    0.04815   0.11123   0.16288   0.21229   0.23631
 Alpha virt. eigenvalues --    0.25097   0.27106   0.27427   0.28112   0.28544
 Alpha virt. eigenvalues --    0.28834   0.30955   0.31989   0.32320   0.32584

 Mulliken charges:
               1
     1  C   -0.170384
     2  C   -0.218519
     3  C   -0.170499
     4  C    0.158017
     5  C   -0.170881
     6  C   -0.218306
     7  H    0.226326
     8  H    0.224097
     9  H    0.276044
    10  H    0.275763
    11  H    0.224227
    12  N    0.489193
    13  O   -0.461172
    14  O   -0.457311
    15  C   -0.312155
    16  C   -0.297638
    17  C   -0.477056
    18  H    0.179730
    19  H    0.144935
    20  H    0.150059
    21  H    0.145935
    22  H    0.152694
    23  H    0.164986
    24  H    0.155005
    25  C   -0.295580
    26  C   -0.299421
    27  C   -0.474720
    28  H    0.146461
    29  H    0.145298
    30  H    0.151310
    31  H    0.151538
    32  H    0.154848
    33  H    0.150795
    34  H    0.156382
 Sum of Mulliken charges =  -0.00000

 Dipole moment (field-independent basis, Debye):
    X=             -4.4846    Y=              2.8388    Z=              0.6352  Tot=              5.3455
 Quadrupole moment (field-independent basis, Debye-Ang):
   XX=            -75.4747   YY=           -100.0547   ZZ=            -91.3592
   XY=             -3.2860   XZ=             -0.1986   YZ=              1.5262

 Normal termination of Gaussian 16 at Wed May  5 15:58:33 2021.
