 Gaussian 16, Revision A.03,
 Gaussian 16:  EM64L-G16RevA.03 25-Dec-2016

 -------------
 #p 6-31g* mp2
 -------------

 ------------------------------------------------------
 Input file generated by CHIRIPA (05-May-2021 14:55:23)
 ------------------------------------------------------
 Symbolic Z-matrix:
 Charge =  0 Multiplicity = 1

                         Standard orientation:
 ---------------------------------------------------------------------
 Center     Atomic      Atomic             Coordinates (Angstroms)
 Number     Number       Type             X           Y           Z
 ---------------------------------------------------------------------
      1          6           0       -3.512297    1.777540    0.677200
      2          6           0       -4.113215    0.569932    1.047470
      3          6           0       -3.563853   -0.650102    0.642172
      4          6           0       -2.407702   -0.625457   -0.136287
      5          6           0       -1.785685    0.561172   -0.521379
      6          6           0       -2.352495    1.769321   -0.104664
      7          1           0       -3.945832    2.720676    0.996480
      8          1           0       -5.013990    0.573278    1.654627
      9          1           0       -4.008498   -1.599588    0.914543
     10          1           0       -0.888344    0.525836   -1.127141
     11          1           0       -1.883658    2.705636   -0.393717
     12          7           0       -1.816882   -1.910762   -0.571400
     13          8           0       -0.797809   -1.862034   -1.256786
     14          8           0       -2.384057   -2.942573   -0.218818
     15          6           0        2.937104    1.210175    0.300501
     16          6           0        2.201443    1.955879   -0.813372
     17          6           0        1.668352    3.316043   -0.362192
     18          1           0        2.257756    1.074841    1.153213
     19          1           0        3.769830    1.830614    0.659692
     20          1           0        1.371195    1.333632   -1.171301
     21          1           0        2.882561    2.089284   -1.663603
     22          1           0        2.488045    3.958179   -0.024012
     23          1           0        0.968091    3.198234    0.471088
     24          1           0        1.146027    3.831887   -1.173945
     25          6           0        3.475892   -0.151298   -0.135191
     26          6           0        4.211554   -0.897002    0.978682
     27          6           0        4.744644   -2.257166    0.527503
     28          1           0        2.643166   -0.771737   -0.494381
     29          1           0        4.155240   -0.015964   -0.987902
     30          1           0        3.530435   -1.030407    1.828914
     31          1           0        5.041801   -0.274755    1.336612
     32          1           0        5.444905   -2.139357   -0.305777
     33          1           0        3.924951   -2.899302    0.189322
     34          1           0        5.266969   -2.773010    1.339255
 ---------------------------------------------------------------------

 SCF Done:  E(RHF) =  -669.535843501     A.U. after   15 cycles
 E2 =    -0.2091980710D+01 EUMP2 =    -0.67162782421129D+03

 The electronic state is 1-A.
 Alpha  occ. eigenvalues --  -20.60848 -20.60840 -15.85892 -11.31221 -11.27792
 Alpha  occ. eigenvalues --  -11.27771 -11.27523 -11.26802 -11.26771 -11.21984
 Alpha  occ. eigenvalues --  -11.21677 -11.21439 -11.21290 -11.21065 -11.20627
 Alpha  occ. eigenvalues --   -1.59916  -1.39471  -1.19393  -1.08794  -1.08404
 Alpha  occ. eigenvalues --   -1.04791  -1.03558  -0.96000  -0.95635  -0.87023
 Alpha  occ. eigenvalues --   -0.86188  -0.82465  -0.79663  -0.78134  -0.77517
 Alpha  occ. eigenvalues --   -0.72112  -0.71236  -0.70513  -0.65094  -0.65026
 Alpha  occ. eigenvalues --   -0.64772  -0.62192  -0.60901  -0.59428  -0.57586
 Alpha  occ. eigenvalues --   -0.55349  -0.55221  -0.53120  -0.52912  -0.52735
 Alpha  occ. eigenvalues --   -0.52408  -0.49925  -0.48870  -0.48866  -0.47952
 Alpha  occ. eigenvalues --   -0.46689  -0.45692  -0.45550  -0.44871  -0.43775
 Alpha  occ. eigenvalues --   -0.37373  -0.36387
 Alpha virt. eigenvalues --    0.04983   0.11231   0.16439   0.19541   0.23165
 Alpha virt. eigenvalues --    0.24081   0.25353   0.26660   0.27296   0.28464
 Alpha virt. eigenvalues --    0.29679   0.31080   0.31402   0.31582   0.31816

 Mulliken charges:
               1
     1  C   -0.170828
     2  C   -0.218711
     3  C   -0.170394
     4  C    0.158789
     5  C   -0.178892
     6  C   -0.223344
     7  H    0.225964
     8  H    0.223585
     9  H    0.275637
    10  H    0.285394
    11  H    0.227319
    12  N    0.487395
    13  O   -0.461757
    14  O   -0.459734
    15  C   -0.297845
    16  C   -0.304050
    17  C   -0.479892
    18  H    0.149351
    19  H    0.149279
    20  H    0.149726
    21  H    0.156291
    22  H    0.159964
    23  H    0.152243
    24  H    0.155731
    25  C   -0.303489
    26  C   -0.299306
    27  C   -0.477046
    28  H    0.163314
    29  H    0.148887
    30  H    0.151905
    31  H    0.149200
    32  H    0.154084
    33  H    0.162368
    34  H    0.158861
 Sum of Mulliken charges =  -0.00000

 Dipole moment (field-independent basis, Debye):
    X=             -2.0370    Y=              4.4244    Z=              1.5289  Tot=              5.1051
 Quadrupole moment (field-independent basis, Debye-Ang):
   XX=            -81.6250   YY=           -100.5524   ZZ=            -94.7482
   XY=             -6.9577   XZ=             -5.8777   YZ=             -3.1500

 Normal termination of Gaussian 16 at Thu May  6 15:57:59 2021.
