 Gaussian 16, Revision A.03,
 Gaussian 16:  EM64L-G16RevA.03 25-Dec-2016

 -------------
 #p 6-31g* mp2
 -------------

 ------------------------------------------------------
 Input file generated by CHIRIPA (05-May-2021 14:55:21)
 ------------------------------------------------------
 Symbolic Z-matrix:
 Charge =  0 Multiplicity = 1

                         Standard orientation:
 ---------------------------------------------------------------------
 Center     Atomic      Atomic             Coordinates (Angstroms)
 Number     Number       Type             X           Y           Z
 ---------------------------------------------------------------------
      1          6           0       -2.431894    2.582001    0.658821
      2          6           0       -3.241642    2.377058   -0.463154
      3          6           0       -3.537744    1.081771   -0.898016
      4          6           0       -3.004916    0.009553   -0.184060
      5          6           0       -2.195000    0.181258    0.937476
      6          6           0       -1.912074    1.485380    1.354329
      7          1           0       -2.206993    3.591642    0.989637
      8          1           0       -3.646721    3.226824   -1.005237
      9          1           0       -4.161850    0.894448   -1.763360
     10          1           0       -1.805736   -0.685684    1.457381
     11          1           0       -1.282922    1.641537    2.226010
     12          7           0       -3.311412   -1.366385   -0.634897
     13          8           0       -2.829716   -2.294249    0.011382
     14          8           0       -4.027535   -1.490929   -1.626004
     15          6           0        4.331210   -0.346162   -0.388180
     16          6           0        5.328915    0.810678   -0.322656
     17          6           0        6.422357    0.709262   -1.386561
     18          1           0        4.871856   -1.295333   -0.271044
     19          1           0        3.872040   -0.369088   -1.386194
     20          1           0        5.785051    0.832264    0.675387
     21          1           0        4.785806    1.757216   -0.439770
     22          1           0        5.984735    0.710568   -2.390097
     23          1           0        6.989657   -0.219639   -1.268603
     24          1           0        7.124583    1.546231   -1.321583
     25          6           0        3.232059   -0.258829    0.669159
     26          6           0        2.234355   -1.415669    0.603634
     27          6           0        1.140912   -1.314254    1.667538
     28          1           0        3.691229   -0.235903    1.667173
     29          1           0        2.691413    0.690343    0.552022
     30          1           0        2.777463   -2.362206    0.720748
     31          1           0        1.778218   -1.437255   -0.394409
     32          1           0        0.573613   -0.385352    1.549582
     33          1           0        1.578534   -1.315559    2.671075
     34          1           0        0.438686   -2.151222    1.602562
 ---------------------------------------------------------------------

 SCF Done:  E(RHF) =  -669.534868974     A.U. after   15 cycles
 E2 =    -0.2092233978D+01 EUMP2 =    -0.67162710295199D+03

 The electronic state is 1-A.
 Alpha  occ. eigenvalues --  -20.60772 -20.60767 -15.85823 -11.31158 -11.27764
 Alpha  occ. eigenvalues --  -11.27679 -11.27508 -11.26764 -11.26743 -11.21762
 Alpha  occ. eigenvalues --  -11.21750 -11.21590 -11.21501 -11.21379 -11.21190
 Alpha  occ. eigenvalues --   -1.59845  -1.39399  -1.19355  -1.08752  -1.08601
 Alpha  occ. eigenvalues --   -1.04765  -1.03711  -0.96199  -0.95582  -0.87231
 Alpha  occ. eigenvalues --   -0.86146  -0.82426  -0.79796  -0.78415  -0.77459
 Alpha  occ. eigenvalues --   -0.72044  -0.71167  -0.70471  -0.65247  -0.65004
 Alpha  occ. eigenvalues --   -0.64760  -0.62190  -0.61057  -0.59527  -0.57779
 Alpha  occ. eigenvalues --   -0.55559  -0.55211  -0.53123  -0.53021  -0.52663
 Alpha  occ. eigenvalues --   -0.52587  -0.50114  -0.48798  -0.48797  -0.48094
 Alpha  occ. eigenvalues --   -0.46799  -0.45961  -0.45871  -0.44808  -0.43958
 Alpha  occ. eigenvalues --   -0.37344  -0.36318
 Alpha virt. eigenvalues --    0.05031   0.11276   0.16404   0.21053   0.22793
 Alpha virt. eigenvalues --    0.24211   0.26107   0.26631   0.27192   0.27967
 Alpha virt. eigenvalues --    0.29249   0.29339   0.31467   0.31645   0.32177

 Mulliken charges:
               1
     1  C   -0.170698
     2  C   -0.219131
     3  C   -0.170666
     4  C    0.155108
     5  C   -0.170216
     6  C   -0.222292
     7  H    0.225617
     8  H    0.223338
     9  H    0.275511
    10  H    0.283603
    11  H    0.224477
    12  N    0.488212
    13  O   -0.461202
    14  O   -0.460426
    15  C   -0.298638
    16  C   -0.299525
    17  C   -0.475811
    18  H    0.151081
    19  H    0.150981
    20  H    0.151573
    21  H    0.150419
    22  H    0.155775
    23  H    0.156046
    24  H    0.160026
    25  C   -0.298616
    26  C   -0.298387
    27  C   -0.487726
    28  H    0.148607
    29  H    0.146830
    30  H    0.155098
    31  H    0.156574
    32  H    0.147808
    33  H    0.154418
    34  H    0.172232
 Sum of Mulliken charges =  -0.00000

 Dipole moment (field-independent basis, Debye):
    X=              1.1186    Y=              4.7586    Z=              1.5375  Tot=              5.1244
 Quadrupole moment (field-independent basis, Debye-Ang):
   XX=           -100.6489   YY=            -94.0501   ZZ=            -93.0915
   XY=            -16.4357   XZ=             -1.7592   YZ=             -2.7970

 Normal termination of Gaussian 16 at Wed May  5 18:58:04 2021.
