 Gaussian 16, Revision A.03,
 Gaussian 16:  EM64L-G16RevA.03 25-Dec-2016

 -------------
 #p 6-31g* mp2
 -------------

 ------------------------------------------------------
 Input file generated by CHIRIPA (05-May-2021 14:55:19)
 ------------------------------------------------------
 Symbolic Z-matrix:
 Charge =  0 Multiplicity = 1

                         Standard orientation:
 ---------------------------------------------------------------------
 Center     Atomic      Atomic             Coordinates (Angstroms)
 Number     Number       Type             X           Y           Z
 ---------------------------------------------------------------------
      1          6           0       -2.195450   -2.855792    0.003445
      2          6           0       -3.266906   -2.229118   -0.641368
      3          6           0       -3.410121   -0.839268   -0.592826
      4          6           0       -2.459205   -0.103560    0.112709
      5          6           0       -1.380748   -0.698710    0.765409
      6          6           0       -1.257444   -2.089938    0.703541
      7          1           0       -2.091931   -3.935996   -0.039440
      8          1           0       -3.996886   -2.821362   -1.185812
      9          1           0       -4.229954   -0.328334   -1.082967
     10          1           0       -0.669009   -0.081696    1.300330
     11          1           0       -0.424326   -2.573919    1.205259
     12          7           0       -2.600281    1.368542    0.171152
     13          8           0       -1.749062    1.994215    0.799322
     14          8           0       -3.559403    1.868827   -0.412317
     15          6           0        3.100201    1.206727   -0.129824
     16          6           0        1.685080    1.780456   -0.208873
     17          6           0        1.665887    3.309311   -0.203692
     18          1           0        3.589126    1.577896    0.781291
     19          1           0        3.689405    1.584616   -0.976839
     20          1           0        1.098320    1.400500    0.637272
     21          1           0        1.199399    1.407724   -1.119808
     22          1           0        2.227675    3.704522   -1.056219
     23          1           0        2.126021    3.697257    0.710845
     24          1           0        0.644431    3.698181   -0.260854
     25          6           0        3.135839   -0.320506   -0.134053
     26          6           0        4.550962   -0.894236   -0.055004
     27          6           0        4.570155   -2.423090   -0.060186
     28          1           0        2.546636   -0.698395    0.712961
     29          1           0        2.646915   -0.691677   -1.045168
     30          1           0        5.036641   -0.521504    0.855931
     31          1           0        5.137722   -0.514279   -0.901150
     32          1           0        4.110020   -2.811036   -0.974722
     33          1           0        4.008366   -2.818301    0.792341
     34          1           0        5.591610   -2.811961   -0.003023
 ---------------------------------------------------------------------

 SCF Done:  E(RHF) =  -669.535642608     A.U. after   15 cycles
 E2 =    -0.2092860254D+01 EUMP2 =    -0.67162850286203D+03

 The electronic state is 1-A.
 Alpha  occ. eigenvalues --  -20.60887 -20.60876 -15.85908 -11.31208 -11.27780
 Alpha  occ. eigenvalues --  -11.27756 -11.27513 -11.26782 -11.26763 -11.21782
 Alpha  occ. eigenvalues --  -11.21557 -11.21384 -11.21192 -11.21094 -11.20191
 Alpha  occ. eigenvalues --   -1.59942  -1.39499  -1.19380  -1.08788  -1.08368
 Alpha  occ. eigenvalues --   -1.04774  -1.03337  -0.95797  -0.95625  -0.86812
 Alpha  occ. eigenvalues --   -0.86177  -0.82470  -0.79474  -0.78209  -0.77471
 Alpha  occ. eigenvalues --   -0.72140  -0.71249  -0.70498  -0.65055  -0.65022
 Alpha  occ. eigenvalues --   -0.64765  -0.62145  -0.60731  -0.59199  -0.57349
 Alpha  occ. eigenvalues --   -0.55288  -0.55110  -0.53107  -0.52888  -0.52416
 Alpha  occ. eigenvalues --   -0.52207  -0.49771  -0.48943  -0.48885  -0.47722
 Alpha  occ. eigenvalues --   -0.46533  -0.45702  -0.45588  -0.44827  -0.43591
 Alpha  occ. eigenvalues --   -0.37358  -0.36359
 Alpha virt. eigenvalues --    0.04971   0.11249   0.16435   0.20330   0.23016
 Alpha virt. eigenvalues --    0.24331   0.25100   0.27073   0.27808   0.28194
 Alpha virt. eigenvalues --    0.29628   0.30062   0.31562   0.31700   0.32636

 Mulliken charges:
               1
     1  C   -0.170543
     2  C   -0.218865
     3  C   -0.170633
     4  C    0.155919
     5  C   -0.168341
     6  C   -0.220271
     7  H    0.225820
     8  H    0.223435
     9  H    0.275471
    10  H    0.279684
    11  H    0.224262
    12  N    0.488922
    13  O   -0.461769
    14  O   -0.459516
    15  C   -0.298651
    16  C   -0.300977
    17  C   -0.478777
    18  H    0.149384
    19  H    0.149818
    20  H    0.155179
    21  H    0.148330
    22  H    0.149492
    23  H    0.152033
    24  H    0.180169
    25  C   -0.296271
    26  C   -0.299248
    27  C   -0.475196
    28  H    0.138205
    29  H    0.149625
    30  H    0.152923
    31  H    0.154009
    32  H    0.154355
    33  H    0.150474
    34  H    0.161548
 Sum of Mulliken charges =  -0.00000

 Dipole moment (field-independent basis, Debye):
    X=              0.3611    Y=             -5.0489    Z=             -0.2301  Tot=              5.0671
 Quadrupole moment (field-independent basis, Debye-Ang):
   XX=            -94.2775   YY=            -95.1528   ZZ=            -92.9100
   XY=             13.2909   XZ=              3.1655   YZ=             -0.2876

 Normal termination of Gaussian 16 at Thu May  6 20:39:38 2021.
