 Gaussian 16, Revision A.03,
 Gaussian 16:  EM64L-G16RevA.03 25-Dec-2016

 -------------
 #p 6-31g* mp2
 -------------

 ------------------------------------------------------
 Input file generated by CHIRIPA (05-May-2021 14:55:21)
 ------------------------------------------------------
 Symbolic Z-matrix:
 Charge =  0 Multiplicity = 1

                         Standard orientation:
 ---------------------------------------------------------------------
 Center     Atomic      Atomic             Coordinates (Angstroms)
 Number     Number       Type             X           Y           Z
 ---------------------------------------------------------------------
      1          6           0        5.035794   -1.194314    0.911163
      2          6           0        5.204974   -0.156584   -0.011342
      3          6           0        4.098322    0.422389   -0.639563
      4          6           0        2.831191   -0.063119   -0.320265
      5          6           0        2.630110   -1.095624    0.594498
      6          6           0        3.751167   -1.659701    1.210611
      7          1           0        5.901063   -1.638288    1.394477
      8          1           0        6.201450    0.206862   -0.245835
      9          1           0        4.200597    1.227011   -1.357575
     10          1           0        1.624323   -1.436648    0.807834
     11          1           0        3.616773   -2.465486    1.926638
     12          7           0        1.652004    0.541929   -0.978925
     13          8           0        0.546171    0.096233   -0.680384
     14          8           0        1.855917    1.450404   -1.781252
     15          6           0       -4.433183   -0.291512    0.410021
     16          6           0       -4.760579   -1.183940   -0.787630
     17          6           0       -5.883866   -2.178817   -0.493957
     18          1           0       -4.151647   -0.923091    1.263713
     19          1           0       -5.338451    0.254240    0.710083
     20          1           0       -3.854621   -1.726807   -1.086211
     21          1           0       -5.041184   -0.550157   -1.638626
     22          1           0       -6.802712   -1.651763   -0.217305
     23          1           0       -5.609407   -2.835099    0.338249
     24          1           0       -6.101608   -2.806667   -1.363586
     25          6           0       -3.312189    0.708379    0.131956
     26          6           0       -2.984792    1.600807    1.329607
     27          6           0       -1.861506    2.595683    1.035935
     28          1           0       -2.406921    0.162625   -0.168107
     29          1           0       -3.593725    1.339957   -0.721737
     30          1           0       -2.704188    0.967023    2.180603
     31          1           0       -3.890751    2.143673    1.628189
     32          1           0       -2.135963    3.251965    0.203728
     33          1           0       -0.942659    2.068629    0.759281
     34          1           0       -1.643763    3.223533    1.905562
 ---------------------------------------------------------------------

 SCF Done:  E(RHF) =  -669.536342438     A.U. after   15 cycles
 E2 =    -0.2091568455D+01 EUMP2 =    -0.67162791089359D+03

 The electronic state is 1-A.
 Alpha  occ. eigenvalues --  -20.61067 -20.61061 -15.86088 -11.31363 -11.27924
 Alpha  occ. eigenvalues --  -11.27915 -11.27650 -11.26918 -11.26907 -11.20766
 Alpha  occ. eigenvalues --  -11.20449 -11.20441 -11.20423 -11.19987 -11.19668
 Alpha  occ. eigenvalues --   -1.60117  -1.39676  -1.19526  -1.08939  -1.07351
 Alpha  occ. eigenvalues --   -1.04916  -1.02499  -0.95788  -0.94936  -0.86319
 Alpha  occ. eigenvalues --   -0.85952  -0.82627  -0.78592  -0.77689  -0.77106
 Alpha  occ. eigenvalues --   -0.72310  -0.71426  -0.70636  -0.65186  -0.64919
 Alpha  occ. eigenvalues --   -0.63982  -0.62265  -0.59902  -0.58335  -0.56542
 Alpha  occ. eigenvalues --   -0.55422  -0.54221  -0.53248  -0.53008  -0.51684
 Alpha  occ. eigenvalues --   -0.51342  -0.49110  -0.49061  -0.48852  -0.46895
 Alpha  occ. eigenvalues --   -0.45680  -0.45081  -0.44683  -0.44408  -0.42737
 Alpha  occ. eigenvalues --   -0.37501  -0.36514
 Alpha virt. eigenvalues --    0.04809   0.11141   0.16296   0.21246   0.23881
 Alpha virt. eigenvalues --    0.25361   0.27194   0.27567   0.28121   0.28763
 Alpha virt. eigenvalues --    0.29028   0.30835   0.32197   0.32550   0.32689

 Mulliken charges:
               1
     1  C   -0.170411
     2  C   -0.218584
     3  C   -0.170358
     4  C    0.157721
     5  C   -0.170503
     6  C   -0.218497
     7  H    0.226291
     8  H    0.224110
     9  H    0.276133
    10  H    0.275344
    11  H    0.224071
    12  N    0.492388
    13  O   -0.464163
    14  O   -0.456905
    15  C   -0.297242
    16  C   -0.298965
    17  C   -0.474933
    18  H    0.144869
    19  H    0.145593
    20  H    0.153692
    21  H    0.151989
    22  H    0.153622
    23  H    0.152505
    24  H    0.158007
    25  C   -0.306058
    26  C   -0.296994
    27  C   -0.481299
    28  H    0.172612
    29  H    0.148282
    30  H    0.145110
    31  H    0.145933
    32  H    0.154613
    33  H    0.171691
    34  H    0.150333
 Sum of Mulliken charges =  -0.00000

 Dipole moment (field-independent basis, Debye):
    X=              4.5696    Y=             -2.1758    Z=              2.1406  Tot=              5.4953
 Quadrupole moment (field-independent basis, Debye-Ang):
   XX=            -71.0962   YY=            -93.6804   ZZ=            -95.7854
   XY=             -5.3449   XZ=              4.3661   YZ=             -1.9576

 Normal termination of Gaussian 16 at Thu May  6 03:00:32 2021.
