 Gaussian 16, Revision A.03,
 Gaussian 16:  EM64L-G16RevA.03 25-Dec-2016

 -------------
 #p 6-31g* mp2
 -------------

 ------------------------------------------------------
 Input file generated by CHIRIPA (05-May-2021 14:51:11)
 ------------------------------------------------------
 Symbolic Z-matrix:
 Charge =  0 Multiplicity = 1

                         Standard orientation:
 ---------------------------------------------------------------------
 Center     Atomic      Atomic             Coordinates (Angstroms)
 Number     Number       Type             X           Y           Z
 ---------------------------------------------------------------------
      1          6           0        3.235986   -0.343875    0.084150
      2          6           0        4.157455   -1.438650   -0.454688
      3          6           0        3.632385   -2.846212   -0.170318
      4          1           0        3.111583   -0.478469    1.167365
      5          1           0        2.238703   -0.461286   -0.361984
      6          1           0        5.153079   -1.318372   -0.008725
      7          1           0        4.279833   -1.301320   -1.536714
      8          1           0        2.648964   -2.990554   -0.629282
      9          1           0        3.527172   -3.007703    0.907388
     10          1           0        4.306442   -3.613312   -0.564103
     11          6           0        3.747417    1.068819   -0.192367
     12          6           0        2.825948    2.163594    0.346471
     13          6           0        3.351017    3.571156    0.062102
     14          1           0        4.744700    1.186230    0.253767
     15          1           0        3.871820    1.203414   -1.275581
     16          1           0        2.703570    2.026264    1.428497
     17          1           0        1.830324    2.043317   -0.099492
     18          1           0        3.456231    3.732647   -1.015605
     19          1           0        4.334439    3.715498    0.521066
     20          1           0        2.676961    4.338256    0.455886
     21          6           0       -4.143617   -0.087311    0.341726
     22          6           0       -5.051219    0.547497   -0.712439
     23          6           0       -6.351523    1.093370   -0.121655
     24          1           0       -4.688113   -0.897987    0.844988
     25          1           0       -3.911629    0.659598    1.113544
     26          1           0       -5.280301   -0.199987   -1.482767
     27          1           0       -4.504433    1.356631   -1.213382
     28          1           0       -6.140665    1.858372    0.632608
     29          1           0       -6.920940    0.292909    0.361693
     30          1           0       -6.985257    1.542664   -0.892613
     31          6           0       -2.839785   -0.637634   -0.233509
     32          6           0       -1.932185   -1.272442    0.820656
     33          6           0       -0.631880   -1.818314    0.229872
     34          1           0       -3.071774   -1.384542   -1.005327
     35          1           0       -2.295290    0.173043   -0.736771
     36          1           0       -2.478970   -2.081575    1.321599
     37          1           0       -1.703102   -0.524957    1.590982
     38          1           0       -0.062462   -1.017853   -0.253476
     39          1           0       -0.842738   -2.583316   -0.524391
     40          1           0        0.001854   -2.267608    1.000830
 ---------------------------------------------------------------------

 SCF Done:  E(RHF) =  -470.733104739     A.U. after   11 cycles
 E2 =    -0.1582945412D+01 EUMP2 =    -0.47231605015158D+03

 The electronic state is 1-A.
 Alpha  occ. eigenvalues --  -11.21614 -11.21607 -11.21594 -11.21548 -11.21411
 Alpha  occ. eigenvalues --  -11.21364 -11.21352 -11.21280 -11.21081 -11.21075
 Alpha  occ. eigenvalues --  -11.21044 -11.20999  -1.08437  -1.08395  -1.03538
 Alpha  occ. eigenvalues --   -1.03493  -0.95985  -0.95944  -0.87008  -0.86958
 Alpha  occ. eigenvalues --   -0.79648  -0.79524  -0.78281  -0.78171  -0.65109
 Alpha  occ. eigenvalues --   -0.64997  -0.60959  -0.60876  -0.59388  -0.59273
 Alpha  occ. eigenvalues --   -0.57625  -0.57530  -0.55374  -0.55147  -0.52694
 Alpha  occ. eigenvalues --   -0.52631  -0.52458  -0.52330  -0.50042  -0.49796
 Alpha  occ. eigenvalues --   -0.47954  -0.47860  -0.46720  -0.46575  -0.45892
 Alpha  occ. eigenvalues --   -0.45737  -0.45718  -0.45415  -0.43774  -0.43745
 Alpha virt. eigenvalues --    0.21642   0.23048   0.23766   0.24358   0.25422
 Alpha virt. eigenvalues --    0.26705   0.26950   0.27478   0.27792   0.29407
 Alpha virt. eigenvalues --    0.30713   0.31508   0.31588   0.32057   0.32148

 Mulliken charges:
               1
     1  C   -0.304627
     2  C   -0.299176
     3  C   -0.477556
     4  H    0.149071
     5  H    0.157439
     6  H    0.151511
     7  H    0.151505
     8  H    0.158720
     9  H    0.154484
    10  H    0.159697
    11  C   -0.297889
    12  C   -0.299453
    13  C   -0.475635
    14  H    0.149425
    15  H    0.149339
    16  H    0.151983
    17  H    0.150628
    18  H    0.155193
    19  H    0.155374
    20  H    0.160051
    21  C   -0.298280
    22  C   -0.299645
    23  C   -0.475710
    24  H    0.149718
    25  H    0.149619
    26  H    0.151903
    27  H    0.151864
    28  H    0.155214
    29  H    0.155205
    30  H    0.160253
    31  C   -0.298407
    32  C   -0.300083
    33  C   -0.479637
    34  H    0.149459
    35  H    0.149267
    36  H    0.151897
    37  H    0.152298
    38  H    0.158313
    39  H    0.154385
    40  H    0.162283
 Sum of Mulliken charges =  -0.00000

 Dipole moment (field-independent basis, Debye):
    X=             -0.0133    Y=             -0.0139    Z=              0.0042  Tot=              0.0197
 Quadrupole moment (field-independent basis, Debye-Ang):
   XX=            -85.4968   YY=            -85.3503   ZZ=            -84.0563
   XY=              0.5805   XZ=              0.8154   YZ=              0.1545

 Normal termination of Gaussian 16 at Wed May  5 21:27:07 2021.
