 Gaussian 16, Revision A.03,
 Gaussian 16:  EM64L-G16RevA.03 25-Dec-2016

 -------------
 #p 6-31g* mp2
 -------------

 ------------------------------------------------------
 Input file generated by CHIRIPA (05-May-2021 14:55:19)
 ------------------------------------------------------
 Symbolic Z-matrix:
 Charge =  0 Multiplicity = 1

                         Standard orientation:
 ---------------------------------------------------------------------
 Center     Atomic      Atomic             Coordinates (Angstroms)
 Number     Number       Type             X           Y           Z
 ---------------------------------------------------------------------
      1          6           0        3.314571    1.811739   -1.084032
      2          6           0        1.980724    1.671640   -0.686860
      3          6           0        1.534243    0.481035   -0.105772
      4          6           0        2.452755   -0.553761    0.063997
      5          6           0        3.788004   -0.444706   -0.321371
      6          6           0        4.212371    0.754982   -0.900344
      7          1           0        3.652819    2.740157   -1.534614
      8          1           0        1.281260    2.490659   -0.828290
      9          1           0        0.507186    0.345638    0.210834
     10          1           0        4.461863   -1.278762   -0.167480
     11          1           0        5.248837    0.860961   -1.207837
     12          7           0        1.991791   -1.819009    0.678049
     13          8           0        2.820758   -2.715793    0.816718
     14          8           0        0.810249   -1.889968    1.009048
     15          6           0       -3.513818   -0.265650    0.125421
     16          6           0       -4.223188   -0.780254   -1.127560
     17          6           0       -4.771976   -2.197054   -0.956380
     18          1           0       -2.693263   -0.949775    0.381558
     19          1           0       -4.215267   -0.288492    0.970905
     20          1           0       -3.521016   -0.755145   -1.970732
     21          1           0       -5.042030   -0.094721   -1.380855
     22          1           0       -5.492901   -2.234100   -0.133279
     23          1           0       -3.963244   -2.898277   -0.726507
     24          1           0       -5.275057   -2.545094   -1.863925
     25          6           0       -2.959725    1.149447   -0.030172
     26          6           0       -2.250355    1.664051    1.222809
     27          6           0       -1.701567    3.080851    1.051628
     28          1           0       -2.258276    1.172290   -0.875656
     29          1           0       -3.780281    1.833572   -0.286310
     30          1           0       -1.431513    0.978518    1.476104
     31          1           0       -2.952527    1.638942    2.065981
     32          1           0       -2.510298    3.782074    0.821756
     33          1           0       -0.980642    3.117897    0.228527
     34          1           0       -1.198486    3.428891    1.959173
 ---------------------------------------------------------------------

 SCF Done:  E(RHF) =  -669.535490220     A.U. after   15 cycles
 E2 =    -0.2092490348D+01 EUMP2 =    -0.67162798056811D+03

 The electronic state is 1-A.
 Alpha  occ. eigenvalues --  -20.60833 -20.60826 -15.85879 -11.31202 -11.27771
 Alpha  occ. eigenvalues --  -11.27746 -11.27506 -11.26782 -11.26759 -11.22003
 Alpha  occ. eigenvalues --  -11.21760 -11.21648 -11.21455 -11.21225 -11.20783
 Alpha  occ. eigenvalues --   -1.59901  -1.39457  -1.19374  -1.08776  -1.08560
 Alpha  occ. eigenvalues --   -1.04775  -1.03680  -0.96134  -0.95618  -0.87153
 Alpha  occ. eigenvalues --   -0.86173  -0.82453  -0.79766  -0.78289  -0.77512
 Alpha  occ. eigenvalues --   -0.72100  -0.71221  -0.70501  -0.65278  -0.65021
 Alpha  occ. eigenvalues --   -0.64764  -0.62217  -0.60971  -0.59526  -0.57713
 Alpha  occ. eigenvalues --   -0.55473  -0.55245  -0.53101  -0.52913  -0.52836
 Alpha  occ. eigenvalues --   -0.52525  -0.50058  -0.48858  -0.48851  -0.48058
 Alpha  occ. eigenvalues --   -0.46812  -0.45845  -0.45711  -0.44869  -0.43901
 Alpha  occ. eigenvalues --   -0.37354  -0.36369
 Alpha virt. eigenvalues --    0.05011   0.11264   0.16514   0.18532   0.22952
 Alpha virt. eigenvalues --    0.23903   0.25322   0.25926   0.27608   0.28425
 Alpha virt. eigenvalues --    0.29337   0.30858   0.31446   0.31655   0.32673

 Mulliken charges:
               1
     1  C   -0.170832
     2  C   -0.225235
     3  C   -0.179822
     4  C    0.157801
     5  C   -0.170073
     6  C   -0.218866
     7  H    0.226092
     8  H    0.228333
     9  H    0.287946
    10  H    0.275570
    11  H    0.223508
    12  N    0.487690
    13  O   -0.459695
    14  O   -0.462777
    15  C   -0.303582
    16  C   -0.299281
    17  C   -0.476850
    18  H    0.163802
    19  H    0.150461
    20  H    0.150866
    21  H    0.149729
    22  H    0.154961
    23  H    0.161393
    24  H    0.159100
    25  C   -0.298948
    26  C   -0.308701
    27  C   -0.477437
    28  H    0.142521
    29  H    0.150649
    30  H    0.156585
    31  H    0.158795
    32  H    0.159378
    33  H    0.142944
    34  H    0.163975
 Sum of Mulliken charges =  -0.00000

 Dipole moment (field-independent basis, Debye):
    X=              1.5361    Y=              4.3529    Z=             -2.0616  Tot=              5.0554
 Quadrupole moment (field-independent basis, Debye-Ang):
   XX=            -81.6107   YY=           -100.4207   ZZ=            -95.6594
   XY=              7.4978   XZ=             -6.4769   YZ=              1.8467

 Normal termination of Gaussian 16 at Thu May  6 02:54:40 2021.
