 Gaussian 16, Revision A.03,
 Gaussian 16:  EM64L-G16RevA.03 25-Dec-2016

 -------------
 #p 6-31g* mp2
 -------------

 ------------------------------------------------------
 Input file generated by CHIRIPA (05-May-2021 14:55:22)
 ------------------------------------------------------
 Symbolic Z-matrix:
 Charge =  0 Multiplicity = 1

                         Standard orientation:
 ---------------------------------------------------------------------
 Center     Atomic      Atomic             Coordinates (Angstroms)
 Number     Number       Type             X           Y           Z
 ---------------------------------------------------------------------
      1          6           0       -2.825272    2.518963   -0.072634
      2          6           0       -2.150237    1.668603    0.809260
      3          6           0       -2.392917    0.291864    0.793642
      4          6           0       -3.321298   -0.202783   -0.121083
      5          6           0       -4.009823    0.618687   -1.012380
      6          6           0       -3.751278    1.992219   -0.979042
      7          1           0       -2.630590    3.587201   -0.053619
      8          1           0       -1.430554    2.074890    1.514266
      9          1           0       -1.884419   -0.389189    1.465219
     10          1           0       -4.721607    0.184286   -1.703812
     11          1           0       -4.276996    2.650236   -1.665102
     12          7           0       -3.586610   -1.658578   -0.146997
     13          8           0       -4.409270   -2.069547   -0.962455
     14          8           0       -2.966878   -2.361095    0.648641
     15          6           0        3.439243    0.043151    0.089552
     16          6           0        2.711312   -0.030506    1.432190
     17          6           0        1.199489    0.152759    1.295813
     18          1           0        3.227034    1.012115   -0.382699
     19          1           0        3.034674   -0.726999   -0.581706
     20          1           0        3.118088    0.738647    2.101185
     21          1           0        2.925432   -0.999331    1.901389
     22          1           0        0.774240   -0.622041    0.649708
     23          1           0        0.967991    1.125812    0.850639
     24          1           0        0.698995    0.096532    2.267515
     25          6           0        4.951340   -0.138254    0.209485
     26          6           0        5.679272   -0.064597   -1.133153
     27          6           0        7.191094   -0.247862   -0.996774
     28          1           0        5.355909    0.631896    0.880745
     29          1           0        5.163548   -1.107217    0.681737
     30          1           0        5.465151    0.904228   -1.602350
     31          1           0        5.272495   -0.833750   -1.802147
     32          1           0        7.422591   -1.220914   -0.551601
     33          1           0        7.616342    0.526938   -0.350670
     34          1           0        7.691587   -0.191636   -1.968477
 ---------------------------------------------------------------------

 SCF Done:  E(RHF) =  -669.535126813     A.U. after   15 cycles
 E2 =    -0.2091966227D+01 EUMP2 =    -0.67162709304066D+03

 The electronic state is 1-A.
 Alpha  occ. eigenvalues --  -20.60714 -20.60708 -15.85765 -11.31093 -11.27676
 Alpha  occ. eigenvalues --  -11.27621 -11.27414 -11.26690 -11.26635 -11.22008
 Alpha  occ. eigenvalues --  -11.21768 -11.21729 -11.21681 -11.21581 -11.21201
 Alpha  occ. eigenvalues --   -1.59789  -1.39343  -1.19272  -1.08716  -1.08676
 Alpha  occ. eigenvalues --   -1.04675  -1.03851  -0.96338  -0.95512  -0.87373
 Alpha  occ. eigenvalues --   -0.86070  -0.82347  -0.79938  -0.78507  -0.77377
 Alpha  occ. eigenvalues --   -0.71984  -0.71112  -0.70386  -0.65349  -0.64924
 Alpha  occ. eigenvalues --   -0.64679  -0.62040  -0.61241  -0.59703  -0.57926
 Alpha  occ. eigenvalues --   -0.55623  -0.55189  -0.53213  -0.52978  -0.52756
 Alpha  occ. eigenvalues --   -0.52615  -0.50233  -0.48740  -0.48739  -0.48235
 Alpha  occ. eigenvalues --   -0.46926  -0.46055  -0.45957  -0.44755  -0.44114
 Alpha  occ. eigenvalues --   -0.37263  -0.36224
 Alpha virt. eigenvalues --    0.05116   0.11320   0.16558   0.20724   0.22693
 Alpha virt. eigenvalues --    0.23960   0.26056   0.26317   0.27230   0.28033
 Alpha virt. eigenvalues --    0.29141   0.30107   0.31315   0.31482   0.32098

 Mulliken charges:
               1
     1  C   -0.171974
     2  C   -0.218113
     3  C   -0.169259
     4  C    0.157110
     5  C   -0.171154
     6  C   -0.218689
     7  H    0.224955
     8  H    0.224914
     9  H    0.278018
    10  H    0.275155
    11  H    0.222941
    12  N    0.488293
    13  O   -0.460735
    14  O   -0.461018
    15  C   -0.299091
    16  C   -0.300497
    17  C   -0.481961
    18  H    0.148125
    19  H    0.152877
    20  H    0.151045
    21  H    0.156258
    22  H    0.164554
    23  H    0.152317
    24  H    0.153665
    25  C   -0.298710
    26  C   -0.299919
    27  C   -0.475895
    28  H    0.148982
    29  H    0.151387
    30  H    0.151204
    31  H    0.153404
    32  H    0.156116
    33  H    0.154849
    34  H    0.160844
 Sum of Mulliken charges =  -0.00000

 Dipole moment (field-independent basis, Debye):
    X=              1.0690    Y=              5.0698    Z=              0.0597  Tot=              5.1817
 Quadrupole moment (field-independent basis, Debye-Ang):
   XX=           -100.2912   YY=            -96.4181   ZZ=            -92.5766
   XY=            -17.8284   XZ=              2.4436   YZ=             -1.1556

 Normal termination of Gaussian 16 at Thu May  6 15:52:43 2021.
