 Gaussian 16, Revision A.03,
 Gaussian 16:  EM64L-G16RevA.03 25-Dec-2016

 -------------
 #p 6-31g* mp2
 -------------

 ------------------------------------------------------
 Input file generated by CHIRIPA (05-May-2021 14:55:24)
 ------------------------------------------------------
 Symbolic Z-matrix:
 Charge =  0 Multiplicity = 1

                         Standard orientation:
 ---------------------------------------------------------------------
 Center     Atomic      Atomic             Coordinates (Angstroms)
 Number     Number       Type             X           Y           Z
 ---------------------------------------------------------------------
      1          6           0       -6.216521    0.457326    0.535702
      2          6           0       -5.732988   -0.851010    0.430943
      3          6           0       -4.407273   -1.090194    0.057020
      4          6           0       -3.589038    0.007346   -0.206012
      5          6           0       -4.041338    1.322477   -0.110384
      6          6           0       -5.370644    1.537989    0.265181
      7          1           0       -7.247763    0.633936    0.826812
      8          1           0       -6.387639   -1.692195    0.640432
      9          1           0       -4.006948   -2.092825   -0.031798
     10          1           0       -3.364841    2.140693   -0.325543
     11          1           0       -5.743437    2.555133    0.345729
     12          7           0       -2.183662   -0.233337   -0.602737
     13          8           0       -1.482981    0.750752   -0.829126
     14          8           0       -1.809420   -1.401517   -0.679789
     15          6           0        5.515285    0.003376   -0.254702
     16          6           0        6.764680    0.398158    0.533423
     17          6           0        8.006515    0.521318   -0.350021
     18          1           0        5.698894   -0.951120   -0.766729
     19          1           0        5.334822    0.749947   -1.040488
     20          1           0        6.941941   -0.348199    1.318373
     21          1           0        6.578009    1.351729    1.043787
     22          1           0        7.854542    1.279937   -1.124619
     23          1           0        8.220542   -0.429650   -0.848473
     24          1           0        8.888009    0.804322    0.233707
     25          6           0        4.265606   -0.123730    0.614709
     26          6           0        3.016211   -0.518513   -0.173417
     27          6           0        1.774377   -0.641672    0.710027
     28          1           0        4.446070   -0.870302    1.400494
     29          1           0        4.081999    0.830766    1.126735
     30          1           0        3.202883   -1.472085   -0.683781
     31          1           0        2.838951    0.227844   -0.958366
     32          1           0        1.560349    0.309295    1.208479
     33          1           0        1.926349   -1.400292    1.484625
     34          1           0        0.892883   -0.924676    0.126300
 ---------------------------------------------------------------------

 SCF Done:  E(RHF) =  -669.536795016     A.U. after   15 cycles
 E2 =    -0.2091408017D+01 EUMP2 =    -0.67162820303368D+03

 The electronic state is 1-A.
 Alpha  occ. eigenvalues --  -20.61056 -20.61044 -15.86045 -11.31342 -11.27894
 Alpha  occ. eigenvalues --  -11.27890 -11.27626 -11.26892 -11.26883 -11.20911
 Alpha  occ. eigenvalues --  -11.20511 -11.20496 -11.20291 -11.20144 -11.19162
 Alpha  occ. eigenvalues --   -1.60085  -1.39641  -1.19500  -1.08912  -1.07417
 Alpha  occ. eigenvalues --   -1.04890  -1.02409  -0.95760  -0.94842  -0.86292
 Alpha  occ. eigenvalues --   -0.85868  -0.82593  -0.78532  -0.77654  -0.77182
 Alpha  occ. eigenvalues --   -0.72254  -0.71389  -0.70610  -0.65155  -0.64894
 Alpha  occ. eigenvalues --   -0.64062  -0.62237  -0.59822  -0.58281  -0.56426
 Alpha  occ. eigenvalues --   -0.55394  -0.54162  -0.53226  -0.52982  -0.51531
 Alpha  occ. eigenvalues --   -0.51294  -0.49035  -0.48973  -0.48803  -0.46793
 Alpha  occ. eigenvalues --   -0.45605  -0.45057  -0.44722  -0.44631  -0.42608
 Alpha  occ. eigenvalues --   -0.37475  -0.36489
 Alpha virt. eigenvalues --    0.04858   0.11168   0.16364   0.21306   0.23796
 Alpha virt. eigenvalues --    0.25541   0.27226   0.27595   0.28187   0.28453
 Alpha virt. eigenvalues --    0.29239   0.30867   0.32412   0.32440   0.32672

 Mulliken charges:
               1
     1  C   -0.170426
     2  C   -0.218611
     3  C   -0.170582
     4  C    0.160257
     5  C   -0.170710
     6  C   -0.218631
     7  H    0.226166
     8  H    0.224007
     9  H    0.276034
    10  H    0.275943
    11  H    0.223981
    12  N    0.488427
    13  O   -0.458338
    14  O   -0.459797
    15  C   -0.297386
    16  C   -0.298739
    17  C   -0.475123
    18  H    0.148369
    19  H    0.148879
    20  H    0.150496
    21  H    0.150600
    22  H    0.154509
    23  H    0.154415
    24  H    0.157893
    25  C   -0.297043
    26  C   -0.298567
    27  C   -0.485887
    28  H    0.146212
    29  H    0.147134
    30  H    0.148872
    31  H    0.154234
    32  H    0.148932
    33  H    0.143925
    34  H    0.190556
 Sum of Mulliken charges =  -0.00000

 Dipole moment (field-independent basis, Debye):
    X=             -5.4193    Y=              0.8593    Z=              1.2821  Tot=              5.6348
 Quadrupole moment (field-independent basis, Debye-Ang):
   XX=            -61.9122   YY=            -88.9249   ZZ=            -96.6735
   XY=             -2.6201   XZ=             -3.9764   YZ=             -0.5861

 Normal termination of Gaussian 16 at Thu May  6 14:19:42 2021.
