 Gaussian 16, Revision A.03,
 Gaussian 16:  EM64L-G16RevA.03 25-Dec-2016

 -------------
 #p 6-31g* mp2
 -------------

 ------------------------------------------------------
 Input file generated by CHIRIPA (05-May-2021 14:53:17)
 ------------------------------------------------------
 Symbolic Z-matrix:
 Charge =  0 Multiplicity = 1

                         Standard orientation:
 ---------------------------------------------------------------------
 Center     Atomic      Atomic             Coordinates (Angstroms)
 Number     Number       Type             X           Y           Z
 ---------------------------------------------------------------------
      1          6           0       -3.294947   -0.877407   -0.501641
      2          6           0       -1.789372   -0.704760   -0.298118
      3          6           0       -0.978570   -1.869790   -0.866535
      4          1           0       -3.617222   -1.815351   -0.029048
      5          1           0       -3.503246   -0.980832   -1.575563
      6          1           0       -1.584121   -0.600305    0.774997
      7          1           0       -1.470677    0.232978   -0.771085
      8          1           0       -1.154031   -1.972628   -1.942285
      9          1           0       -1.268119   -2.810646   -0.387419
     10          1           0        0.095053   -1.725788   -0.710146
     11          6           0       -4.118939    0.279255    0.061298
     12          6           0       -5.624514    0.106608   -0.142224
     13          6           0       -6.435316    1.271638    0.426192
     14          1           0       -3.910640    0.382680    1.135221
     15          1           0       -3.796663    1.217200   -0.411294
     16          1           0       -5.943209   -0.831130    0.330742
     17          1           0       -5.829765    0.002153   -1.215340
     18          1           0       -6.145766    2.212494   -0.052924
     19          1           0       -6.259855    1.374476    1.501943
     20          1           0       -7.508939    1.127636    0.269803
     21          6           0        2.928974    2.718570   -0.263914
     22          6           0        3.738912    1.864514   -1.019633
     23          6           0        3.728785    0.486027   -0.786781
     24          6           0        2.892866   -0.006580    0.214152
     25          6           0        2.074407    0.818576    0.983913
     26          6           0        2.100766    2.193801    0.733688
     27          1           0        2.943146    3.788144   -0.451546
     28          1           0        4.383104    2.269261   -1.795031
     29          1           0        4.345667   -0.197884   -1.356991
     30          1           0        1.442727    0.385639    1.750050
     31          1           0        1.470695    2.854689    1.322145
     32          7           0        2.873553   -1.464195    0.469858
     33          8           0        2.128258   -1.873305    1.357439
     34          8           0        3.604076   -2.169962   -0.222142
 ---------------------------------------------------------------------

 SCF Done:  E(RHF) =  -669.535721489     A.U. after   15 cycles
 E2 =    -0.2091931375D+01 EUMP2 =    -0.67162765286389D+03

 The electronic state is 1-A.
 Alpha  occ. eigenvalues --  -20.60863 -20.60857 -15.85888 -11.31232 -11.27799
 Alpha  occ. eigenvalues --  -11.27796 -11.27538 -11.26809 -11.26797 -11.21573
 Alpha  occ. eigenvalues --  -11.21372 -11.21348 -11.21198 -11.21097 -11.20511
 Alpha  occ. eigenvalues --   -1.59931  -1.39484  -1.19404  -1.08807  -1.08304
 Alpha  occ. eigenvalues --   -1.04799  -1.03351  -0.95781  -0.95643  -0.86793
 Alpha  occ. eigenvalues --   -0.86200  -0.82475  -0.79429  -0.78128  -0.77526
 Alpha  occ. eigenvalues --   -0.72115  -0.71279  -0.70510  -0.65058  -0.64935
 Alpha  occ. eigenvalues --   -0.64801  -0.62147  -0.60742  -0.59165  -0.57402
 Alpha  occ. eigenvalues --   -0.55305  -0.55060  -0.53128  -0.52891  -0.52457
 Alpha  occ. eigenvalues --   -0.52209  -0.49716  -0.48877  -0.48873  -0.47747
 Alpha  occ. eigenvalues --   -0.46471  -0.45662  -0.45591  -0.44880  -0.43577
 Alpha  occ. eigenvalues --   -0.37383  -0.36393
 Alpha virt. eigenvalues --    0.04988   0.11215   0.16471   0.21219   0.22953
 Alpha virt. eigenvalues --    0.24255   0.26382   0.27071   0.27626   0.28010
 Alpha virt. eigenvalues --    0.28517   0.30582   0.31468   0.31806   0.31885

 Mulliken charges:
               1
     1  C   -0.298164
     2  C   -0.300872
     3  C   -0.472631
     4  H    0.151759
     5  H    0.149278
     6  H    0.150191
     7  H    0.146922
     8  H    0.151291
     9  H    0.160681
    10  H    0.161742
    11  C   -0.297759
    12  C   -0.299518
    13  C   -0.475548
    14  H    0.148137
    15  H    0.146806
    16  H    0.153099
    17  H    0.152024
    18  H    0.153757
    19  H    0.154687
    20  H    0.160478
    21  C   -0.170675
    22  C   -0.218620
    23  C   -0.170844
    24  C    0.155672
    25  C   -0.170338
    26  C   -0.218644
    27  H    0.225780
    28  H    0.223600
    29  H    0.275806
    30  H    0.276439
    31  H    0.223964
    32  N    0.487974
    33  O   -0.457858
    34  O   -0.458614
 Sum of Mulliken charges =  -0.00000

 Dipole moment (field-independent basis, Debye):
    X=              0.1610    Y=              5.0598    Z=             -0.8756  Tot=              5.1375
 Quadrupole moment (field-independent basis, Debye-Ang):
   XX=            -93.1695   YY=            -95.4468   ZZ=            -92.3174
   XY=             15.2817   XZ=             -5.3471   YZ=              0.9025

 Normal termination of Gaussian 16 at Wed May  5 22:03:23 2021.
