 Gaussian 16, Revision A.03,
 Gaussian 16:  EM64L-G16RevA.03 25-Dec-2016

 -------------
 #p 6-31g* mp2
 -------------

 ------------------------------------------------------
 Input file generated by CHIRIPA (05-May-2021 14:51:10)
 ------------------------------------------------------
 Symbolic Z-matrix:
 Charge =  0 Multiplicity = 1

                         Standard orientation:
 ---------------------------------------------------------------------
 Center     Atomic      Atomic             Coordinates (Angstroms)
 Number     Number       Type             X           Y           Z
 ---------------------------------------------------------------------
      1          6           0        3.605905   -0.555470    0.163242
      2          6           0        4.692884   -0.085196   -0.803869
      3          6           0        5.665752   -1.200627   -1.187455
      4          1           0        4.079290   -0.958617    1.068959
      5          1           0        3.050999   -1.385617   -0.295376
      6          1           0        5.244679    0.744729   -0.344126
      7          1           0        4.216852    0.317054   -1.707309
      8          1           0        5.133584   -2.027056   -1.669549
      9          1           0        6.167251   -1.596951   -0.298621
     10          1           0        6.434440   -0.842550   -1.879379
     11          6           0        2.625628    0.548381    0.556048
     12          6           0        1.538649    0.078108    1.523159
     13          6           0        0.565781    1.193538    1.906745
     14          1           0        3.180534    1.378528    1.014666
     15          1           0        2.152243    0.951529   -0.349670
     16          1           0        2.014681   -0.324143    2.426599
     17          1           0        0.986854   -0.751817    1.063416
     18          1           0        0.064282    1.589863    1.017910
     19          1           0        1.097949    2.019967    2.388839
     20          1           0       -0.202907    0.835461    2.598668
     21          6           0       -2.579339    0.547001   -0.377886
     22          6           0       -3.123197    1.923137   -0.763181
     23          6           0       -2.038067    2.999824   -0.795333
     24          1           0       -2.096995    0.613001    0.606966
     25          1           0       -1.795253    0.257475   -1.091173
     26          1           0       -3.906987    2.209374   -0.050190
     27          1           0       -3.604471    1.853811   -1.747145
     28          1           0       -1.259537    2.740613   -1.520111
     29          1           0       -1.563773    3.098196    0.186486
     30          1           0       -2.448771    3.975572   -1.072997
     31          6           0       -3.652194   -0.539912   -0.341404
     32          6           0       -3.108336   -1.916049    0.043891
     33          6           0       -4.193466   -2.992735    0.076043
     34          1           0       -4.436281   -0.250385    0.371883
     35          1           0       -4.134539   -0.605912   -1.326256
     36          1           0       -2.627063   -1.846722    1.027856
     37          1           0       -2.324545   -2.202284   -0.669100
     38          1           0       -4.667760   -3.091107   -0.905777
     39          1           0       -4.971996   -2.733525    0.800821
     40          1           0       -3.782761   -3.968482    0.353707
 ---------------------------------------------------------------------

 SCF Done:  E(RHF) =  -470.732170874     A.U. after   11 cycles
 E2 =    -0.1583981308D+01 EUMP2 =    -0.47231615218237D+03

 The electronic state is 1-A.
 Alpha  occ. eigenvalues --  -11.21615 -11.21601 -11.21590 -11.21560 -11.21382
 Alpha  occ. eigenvalues --  -11.21382 -11.21322 -11.21303 -11.21080 -11.21076
 Alpha  occ. eigenvalues --  -11.21063 -11.20975  -1.08449  -1.08388  -1.03569
 Alpha  occ. eigenvalues --   -1.03480  -0.95987  -0.95963  -0.87007  -0.86988
 Alpha  occ. eigenvalues --   -0.79697  -0.79497  -0.78283  -0.78179  -0.65136
 Alpha  occ. eigenvalues --   -0.64977  -0.61056  -0.60816  -0.59371  -0.59329
 Alpha  occ. eigenvalues --   -0.57707  -0.57473  -0.55279  -0.55265  -0.52697
 Alpha  occ. eigenvalues --   -0.52658  -0.52520  -0.52286  -0.49990  -0.49931
 Alpha  occ. eigenvalues --   -0.48057  -0.47751  -0.46775  -0.46496  -0.45876
 Alpha  occ. eigenvalues --   -0.45725  -0.45689  -0.45370  -0.43784  -0.43750
 Alpha virt. eigenvalues --    0.21441   0.23192   0.23531   0.24355   0.25882
 Alpha virt. eigenvalues --    0.26346   0.26852   0.27741   0.28220   0.29675
 Alpha virt. eigenvalues --    0.30835   0.31109   0.31660   0.31858   0.32412

 Mulliken charges:
               1
     1  C   -0.298308
     2  C   -0.299615
     3  C   -0.475682
     4  H    0.149628
     5  H    0.149445
     6  H    0.151959
     7  H    0.151798
     8  H    0.155101
     9  H    0.155183
    10  H    0.160202
    11  C   -0.298555
    12  C   -0.300026
    13  C   -0.484578
    14  H    0.149507
    15  H    0.149831
    16  H    0.151556
    17  H    0.152995
    18  H    0.166551
    19  H    0.154607
    20  H    0.157983
    21  C   -0.305836
    22  C   -0.298796
    23  C   -0.480649
    24  H    0.159553
    25  H    0.147722
    26  H    0.151909
    27  H    0.151701
    28  H    0.154099
    29  H    0.160174
    30  H    0.160834
    31  C   -0.297757
    32  C   -0.299798
    33  C   -0.475669
    34  H    0.149426
    35  H    0.149389
    36  H    0.151965
    37  H    0.151404
    38  H    0.155235
    39  H    0.155261
    40  H    0.160251
 Sum of Mulliken charges =  -0.00000

 Dipole moment (field-independent basis, Debye):
    X=             -0.0151    Y=              0.0206    Z=              0.0078  Tot=              0.0267
 Quadrupole moment (field-independent basis, Debye-Ang):
   XX=            -85.5324   YY=            -85.9534   ZZ=            -83.4209
   XY=              0.0286   XZ=              0.5516   YZ=              0.2239

 Normal termination of Gaussian 16 at Thu May  6 05:23:25 2021.
