 Gaussian 16, Revision A.03,
 Gaussian 16:  EM64L-G16RevA.03 25-Dec-2016

 -------------
 #p 6-31g* mp2
 -------------

 ------------------------------------------------------
 Input file generated by CHIRIPA (05-May-2021 14:53:12)
 ------------------------------------------------------
 Symbolic Z-matrix:
 Charge =  0 Multiplicity = 1

                         Standard orientation:
 ---------------------------------------------------------------------
 Center     Atomic      Atomic             Coordinates (Angstroms)
 Number     Number       Type             X           Y           Z
 ---------------------------------------------------------------------
      1          6           0       -3.346225    0.746580   -0.137089
      2          6           0       -3.050506    1.862830    0.865170
      3          6           0       -2.143960    2.950507    0.288171
      4          1           0       -2.398991    0.299053   -0.467864
      5          1           0       -3.815750    1.180591   -1.030720
      6          1           0       -2.582939    1.426660    1.757219
      7          1           0       -3.998564    2.307624    1.193743
      8          1           0       -2.607308    3.412625   -0.589528
      9          1           0       -1.183639    2.526655   -0.022850
     10          1           0       -1.945492    3.738423    1.021423
     11          6           0       -4.251288   -0.348223    0.425043
     12          6           0       -4.547006   -1.464473   -0.577216
     13          6           0       -5.453553   -2.552150   -0.000218
     14          1           0       -3.781763   -0.782234    1.318674
     15          1           0       -5.198522    0.099304    0.755818
     16          1           0       -3.598948   -1.909267   -0.905789
     17          1           0       -5.014574   -1.028303   -1.469265
     18          1           0       -6.413873   -2.128298    0.310804
     19          1           0       -4.990205   -3.014267    0.877482
     20          1           0       -5.652020   -3.340066   -0.733469
     21          6           0        3.796230   -2.486662    0.383279
     22          6           0        4.568260   -1.377722    0.744859
     23          6           0        4.119156   -0.081539    0.475111
     24          6           0        2.887687    0.069750   -0.160411
     25          6           0        2.095549   -1.015131   -0.533027
     26          6           0        2.564510   -2.302153   -0.253387
     27          1           0        4.152816   -3.490010    0.596668
     28          1           0        5.525225   -1.518003    1.239413
     29          1           0        4.696590    0.794600    0.744122
     30          1           0        1.145766   -0.843575   -1.024859
     31          1           0        1.962819   -3.161523   -0.535339
     32          7           0        2.401730    1.437111   -0.451216
     33          8           0        1.313286    1.543620   -1.012095
     34          8           0        3.118482    2.376448   -0.112766
 ---------------------------------------------------------------------

 SCF Done:  E(RHF) =  -669.536248478     A.U. after   15 cycles
 E2 =    -0.2091049447D+01 EUMP2 =    -0.67162729792555D+03

 The electronic state is 1-A.
 Alpha  occ. eigenvalues --  -20.60986 -20.60976 -15.86010 -11.31321 -11.27886
 Alpha  occ. eigenvalues --  -11.27878 -11.27617 -11.26888 -11.26878 -11.21459
 Alpha  occ. eigenvalues --  -11.21070 -11.21003 -11.20861 -11.20801 -11.19769
 Alpha  occ. eigenvalues --   -1.60038  -1.39596  -1.19488  -1.08894  -1.07985
 Alpha  occ. eigenvalues --   -1.04883  -1.02996  -0.95739  -0.95415  -0.86427
 Alpha  occ. eigenvalues --   -0.86283  -0.82572  -0.79100  -0.77757  -0.77619
 Alpha  occ. eigenvalues --   -0.72233  -0.71349  -0.70597  -0.65145  -0.64885
 Alpha  occ. eigenvalues --   -0.64628  -0.62231  -0.60394  -0.58861  -0.57020
 Alpha  occ. eigenvalues --   -0.55387  -0.54694  -0.53215  -0.52975  -0.52109
 Alpha  occ. eigenvalues --   -0.51825  -0.49393  -0.48991  -0.48946  -0.47383
 Alpha  occ. eigenvalues --   -0.46169  -0.45333  -0.45248  -0.44854  -0.43266
 Alpha  occ. eigenvalues --   -0.37465  -0.36484
 Alpha virt. eigenvalues --    0.04864   0.11170   0.16336   0.21108   0.23143
 Alpha virt. eigenvalues --    0.24806   0.26256   0.27359   0.27639   0.28642
 Alpha virt. eigenvalues --    0.28790   0.30788   0.31793   0.32082   0.32424

 Mulliken charges:
               1
     1  C   -0.296986
     2  C   -0.298984
     3  C   -0.486567
     4  H    0.148736
     5  H    0.149813
     6  H    0.147843
     7  H    0.148115
     8  H    0.151787
     9  H    0.181568
    10  H    0.156732
    11  C   -0.297881
    12  C   -0.298117
    13  C   -0.475301
    14  H    0.146971
    15  H    0.149564
    16  H    0.147111
    17  H    0.152867
    18  H    0.155956
    19  H    0.153464
    20  H    0.158650
    21  C   -0.170541
    22  C   -0.218562
    23  C   -0.170605
    24  C    0.158053
    25  C   -0.171148
    26  C   -0.218546
    27  H    0.226142
    28  H    0.223950
    29  H    0.275981
    30  H    0.275653
    31  H    0.223988
    32  N    0.489841
    33  O   -0.461562
    34  O   -0.457984
 Sum of Mulliken charges =  -0.00000

 Dipole moment (field-independent basis, Debye):
    X=              1.9810    Y=             -4.7676    Z=              0.9727  Tot=              5.2536
 Quadrupole moment (field-independent basis, Debye-Ang):
   XX=            -81.8205   YY=            -95.8046   ZZ=            -95.0941
   XY=            -13.1566   XZ=              5.4216   YZ=              1.6440

 Normal termination of Gaussian 16 at Thu May  6 11:57:50 2021.
