 Gaussian 16, Revision A.03,
 Gaussian 16:  EM64L-G16RevA.03 25-Dec-2016

 -------------
 #p 6-31g* mp2
 -------------

 ------------------------------------------------------
 Input file generated by CHIRIPA (05-May-2021 14:55:18)
 ------------------------------------------------------
 Symbolic Z-matrix:
 Charge =  0 Multiplicity = 1

                         Standard orientation:
 ---------------------------------------------------------------------
 Center     Atomic      Atomic             Coordinates (Angstroms)
 Number     Number       Type             X           Y           Z
 ---------------------------------------------------------------------
      1          6           0       -4.822466    1.461929    0.163297
      2          6           0       -3.610735    1.911566   -0.371543
      3          6           0       -2.524307    1.040939   -0.498947
      4          6           0       -2.685309   -0.278720   -0.079582
      5          6           0       -3.879746   -0.756679    0.457228
      6          6           0       -4.952875    0.131587    0.575249
      7          1           0       -5.661264    2.145103    0.258623
      8          1           0       -3.506584    2.944192   -0.692296
      9          1           0       -1.574895    1.362587   -0.909529
     10          1           0       -3.953287   -1.791696    0.768271
     11          1           0       -5.892734   -0.220380    0.990977
     12          7           0       -1.542196   -1.209750   -0.209492
     13          8           0       -1.709606   -2.367606    0.167312
     14          8           0       -0.500461   -0.764007   -0.685661
     15          6           0        3.371269   -0.473158   -0.221852
     16          6           0        3.904580   -1.758818    0.411111
     17          6           0        3.280790   -3.017665   -0.192201
     18          1           0        2.279954   -0.437594   -0.100557
     19          1           0        3.564953   -0.497365   -1.303191
     20          1           0        3.711185   -1.731578    1.491144
     21          1           0        4.994775   -1.791234    0.288464
     22          1           0        3.485279   -3.072098   -1.266363
     23          1           0        2.194397   -3.012102   -0.056849
     24          1           0        3.676220   -3.925060    0.274840
     25          6           0        3.985423    0.793863    0.370771
     26          6           0        3.452111    2.079523   -0.262192
     27          6           0        4.075902    3.338369    0.341121
     28          1           0        3.791739    0.818069    1.452110
     29          1           0        5.076738    0.758299    0.249476
     30          1           0        2.361917    2.111939   -0.139545
     31          1           0        3.645506    2.052282   -1.342226
     32          1           0        5.162296    3.332807    0.205768
     33          1           0        3.871412    3.392802    1.415281
     34          1           0        3.680473    4.245765   -0.125921
 ---------------------------------------------------------------------

 SCF Done:  E(RHF) =  -669.536475859     A.U. after   15 cycles
 E2 =    -0.2091270010D+01 EUMP2 =    -0.67162774586946D+03

 The electronic state is 1-A.
 Alpha  occ. eigenvalues --  -20.61049 -20.61043 -15.86067 -11.31352 -11.27910
 Alpha  occ. eigenvalues --  -11.27906 -11.27641 -11.26908 -11.26899 -11.20945
 Alpha  occ. eigenvalues --  -11.20618 -11.20468 -11.20351 -11.19942 -11.19583
 Alpha  occ. eigenvalues --   -1.60101  -1.39658  -1.19516  -1.08928  -1.07382
 Alpha  occ. eigenvalues --   -1.04906  -1.02531  -0.95776  -0.94963  -0.86309
 Alpha  occ. eigenvalues --   -0.85980  -0.82611  -0.78645  -0.77674  -0.77102
 Alpha  occ. eigenvalues --   -0.72287  -0.71410  -0.70624  -0.65173  -0.64909
 Alpha  occ. eigenvalues --   -0.64016  -0.62253  -0.59932  -0.58394  -0.56561
 Alpha  occ. eigenvalues --   -0.55412  -0.54240  -0.53241  -0.52997  -0.51720
 Alpha  occ. eigenvalues --   -0.51366  -0.49075  -0.49047  -0.48884  -0.46938
 Alpha  occ. eigenvalues --   -0.45691  -0.45166  -0.44675  -0.44380  -0.42755
 Alpha  occ. eigenvalues --   -0.37493  -0.36506
 Alpha virt. eigenvalues --    0.04835   0.11149   0.16322   0.21214   0.23780
 Alpha virt. eigenvalues --    0.25345   0.26908   0.27472   0.27985   0.28930
 Alpha virt. eigenvalues --    0.29049   0.30976   0.32167   0.32485   0.32519

 Mulliken charges:
               1
     1  C   -0.170459
     2  C   -0.218552
     3  C   -0.170906
     4  C    0.157542
     5  C   -0.170487
     6  C   -0.218605
     7  H    0.226247
     8  H    0.224177
     9  H    0.276015
    10  H    0.275982
    11  H    0.224025
    12  N    0.491789
    13  O   -0.458799
    14  O   -0.463251
    15  C   -0.309178
    16  C   -0.298014
    17  C   -0.479238
    18  H    0.176479
    19  H    0.145778
    20  H    0.148166
    21  H    0.145250
    22  H    0.151451
    23  H    0.174085
    24  H    0.153251
    25  C   -0.297228
    26  C   -0.297862
    27  C   -0.474920
    28  H    0.146460
    29  H    0.145838
    30  H    0.150067
    31  H    0.150920
    32  H    0.154659
    33  H    0.153547
    34  H    0.155771
 Sum of Mulliken charges =  -0.00000

 Dipole moment (field-independent basis, Debye):
    X=             -4.4354    Y=              3.1860    Z=              0.4213  Tot=              5.4773
 Quadrupole moment (field-independent basis, Debye-Ang):
   XX=            -72.9328   YY=            -95.6998   ZZ=            -94.5899
   XY=             -5.9667   XZ=             -3.0403   YZ=             -2.4002

 Normal termination of Gaussian 16 at Thu May  6 09:12:46 2021.
