 Gaussian 16, Revision A.03,
 Gaussian 16:  EM64L-G16RevA.03 25-Dec-2016

 -------------
 #p 6-31g* mp2
 -------------

 ------------------------------------------------------
 Input file generated by CHIRIPA (05-May-2021 14:51:12)
 ------------------------------------------------------
 Symbolic Z-matrix:
 Charge =  0 Multiplicity = 1

                         Standard orientation:
 ---------------------------------------------------------------------
 Center     Atomic      Atomic             Coordinates (Angstroms)
 Number     Number       Type             X           Y           Z
 ---------------------------------------------------------------------
      1          6           0       -2.455310    1.208487   -0.482510
      2          6           0       -1.856101    1.942680    0.717446
      3          6           0       -1.550755    3.411010    0.419847
      4          1           0       -1.759462    1.275304   -1.330021
      5          1           0       -3.376796    1.719837   -0.793604
      6          1           0       -0.936760    1.429287    1.027050
      7          1           0       -2.553372    1.873944    1.562257
      8          1           0       -2.463018    3.943560    0.132151
      9          1           0       -0.837221    3.496376   -0.406097
     10          1           0       -1.123172    3.916747    1.291204
     11          6           0       -2.766000   -0.260427   -0.200566
     12          6           0       -3.365209   -0.994621   -1.400522
     13          6           0       -3.670556   -2.462951   -1.102922
     14          1           0       -1.844514   -0.771777    0.110529
     15          1           0       -3.461849   -0.327244    0.646945
     16          1           0       -2.667939   -0.925884   -2.245332
     17          1           0       -4.284551   -0.481227   -1.710125
     18          1           0       -4.384090   -2.548316   -0.276979
     19          1           0       -2.758293   -2.995500   -0.815227
     20          1           0       -4.098139   -2.968687   -1.974279
     21          6           0        2.101641   -0.306386    0.885810
     22          6           0        1.443453   -1.541498    1.501661
     23          6           0        0.427586   -1.189848    2.588928
     24          1           0        2.596151    0.271466    1.678585
     25          1           0        1.322616    0.344018    0.464515
     26          1           0        2.223595   -2.190045    1.920445
     27          1           0        0.950616   -2.116577    0.707299
     28          1           0       -0.371226   -0.561928    2.181231
     29          1           0        0.908987   -0.635814    3.401270
     30          1           0       -0.030784   -2.087487    3.015544
     31          6           0        3.119670   -0.641674   -0.202734
     32          6           0        3.777857    0.593438   -0.818585
     33          6           0        4.793724    0.241788   -1.905852
     34          1           0        3.898694   -1.292078    0.218561
     35          1           0        2.625159   -1.219525   -0.995510
     36          1           0        4.270695    1.168518   -0.024223
     37          1           0        2.997715    1.241986   -1.237370
     38          1           0        4.312323   -0.312245   -2.718195
     39          1           0        5.592537   -0.386131   -1.498155
     40          1           0        5.252094    1.139428   -2.332468
 ---------------------------------------------------------------------

 SCF Done:  E(RHF) =  -470.732610424     A.U. after   11 cycles
 E2 =    -0.1584376619D+01 EUMP2 =    -0.47231698704332D+03

 The electronic state is 1-A.
 Alpha  occ. eigenvalues --  -11.21642 -11.21641 -11.21640 -11.21613 -11.21458
 Alpha  occ. eigenvalues --  -11.21449 -11.21398 -11.21389 -11.21102 -11.21099
 Alpha  occ. eigenvalues --  -11.21091 -11.21007  -1.08514  -1.08444  -1.03582
 Alpha  occ. eigenvalues --   -1.03544  -0.96026  -0.95992  -0.87029  -0.87022
 Alpha  occ. eigenvalues --   -0.79702  -0.79571  -0.78391  -0.78200  -0.65359
 Alpha  occ. eigenvalues --   -0.64896  -0.61046  -0.60892  -0.59434  -0.59318
 Alpha  occ. eigenvalues --   -0.57633  -0.57610  -0.55384  -0.55226  -0.52715
 Alpha  occ. eigenvalues --   -0.52690  -0.52440  -0.52421  -0.49996  -0.49940
 Alpha  occ. eigenvalues --   -0.48130  -0.47857  -0.46920  -0.46562  -0.46073
 Alpha  occ. eigenvalues --   -0.45800  -0.45784  -0.45153  -0.43821  -0.43810
 Alpha virt. eigenvalues --    0.19825   0.23449   0.23519   0.23866   0.26119
 Alpha virt. eigenvalues --    0.26531   0.27231   0.27835   0.28163   0.29543
 Alpha virt. eigenvalues --    0.30206   0.31573   0.31651   0.31844   0.32166

 Mulliken charges:
               1
     1  C   -0.297856
     2  C   -0.310443
     3  C   -0.474910
     4  H    0.148728
     5  H    0.149953
     6  H    0.161776
     7  H    0.152242
     8  H    0.155285
     9  H    0.154754
    10  H    0.160733
    11  C   -0.303758
    12  C   -0.299451
    13  C   -0.475653
    14  H    0.154431
    15  H    0.150080
    16  H    0.151621
    17  H    0.152229
    18  H    0.155467
    19  H    0.155034
    20  H    0.160356
    21  C   -0.303699
    22  C   -0.300256
    23  C   -0.484376
    24  H    0.150113
    25  H    0.153445
    26  H    0.152409
    27  H    0.151038
    28  H    0.164909
    29  H    0.154812
    30  H    0.160313
    31  C   -0.297989
    32  C   -0.299592
    33  C   -0.475744
    34  H    0.149954
    35  H    0.149384
    36  H    0.152217
    37  H    0.151539
    38  H    0.155146
    39  H    0.155333
    40  H    0.160426
 Sum of Mulliken charges =  -0.00000

 Dipole moment (field-independent basis, Debye):
    X=             -0.0085    Y=              0.0107    Z=              0.0113  Tot=              0.0177
 Quadrupole moment (field-independent basis, Debye-Ang):
   XX=            -83.9006   YY=            -85.9148   ZZ=            -84.8605
   XY=             -0.4746   XZ=              0.8326   YZ=              0.0841

 Normal termination of Gaussian 16 at Wed May  5 18:17:40 2021.
