 Gaussian 16, Revision A.03,
 Gaussian 16:  EM64L-G16RevA.03 25-Dec-2016

 -------------
 #p 6-31g* mp2
 -------------

 ------------------------------------------------------
 Input file generated by CHIRIPA (05-May-2021 14:53:18)
 ------------------------------------------------------
 Symbolic Z-matrix:
 Charge =  0 Multiplicity = 1

                         Standard orientation:
 ---------------------------------------------------------------------
 Center     Atomic      Atomic             Coordinates (Angstroms)
 Number     Number       Type             X           Y           Z
 ---------------------------------------------------------------------
      1          6           0       -4.316014   -0.618209    0.227630
      2          6           0       -5.717887   -1.221749    0.135560
      3          6           0       -5.808775   -2.606286    0.777891
      4          1           0       -3.599389   -1.296097   -0.255961
      5          1           0       -4.020950   -0.553388    1.284101
      6          1           0       -6.010774   -1.284131   -0.920348
      7          1           0       -6.431286   -0.542254    0.619259
      8          1           0       -5.542341   -2.557088    1.838643
      9          1           0       -5.119440   -3.303180    0.290289
     10          1           0       -6.819474   -3.019078    0.700748
     11          6           0       -4.209226    0.765842   -0.410123
     12          6           0       -2.807353    1.369382   -0.318053
     13          6           0       -2.716465    2.753919   -0.960384
     14          1           0       -4.504290    0.701021   -1.466594
     15          1           0       -4.925851    1.443730    0.073468
     16          1           0       -2.093954    0.689887   -0.801751
     17          1           0       -2.514466    1.431764    0.737855
     18          1           0       -3.405800    3.450813   -0.472781
     19          1           0       -2.982899    2.704721   -2.021135
     20          1           0       -1.705766    3.166711   -0.883240
     21          6           0        1.513400    1.599386    0.636470
     22          6           0        2.764936    1.695182    1.253723
     23          6           0        3.778989    0.782537    0.948233
     24          6           0        3.505811   -0.217867    0.016646
     25          6           0        2.269190   -0.339528   -0.615221
     26          6           0        1.269950    0.584127   -0.294392
     27          1           0        0.731414    2.312626    0.879739
     28          1           0        2.956835    2.482617    1.977025
     29          1           0        4.756989    0.833567    1.411193
     30          1           0        2.107741   -1.135322   -1.332203
     31          1           0        0.298945    0.507305   -0.775320
     32          7           0        4.571502   -1.189871   -0.314882
     33          8           0        4.305634   -2.062076   -1.139023
     34          8           0        5.652479   -1.061117    0.255685
 ---------------------------------------------------------------------

 SCF Done:  E(RHF) =  -669.535500692     A.U. after   15 cycles
 E2 =    -0.2091355868D+01 EUMP2 =    -0.67162685656018D+03

 The electronic state is 1-A.
 Alpha  occ. eigenvalues --  -20.60719 -20.60714 -15.85771 -11.31125 -11.27693
 Alpha  occ. eigenvalues --  -11.27680 -11.27422 -11.26710 -11.26657 -11.22838
 Alpha  occ. eigenvalues --  -11.22263 -11.22223 -11.22149 -11.22064 -11.21495
 Alpha  occ. eigenvalues --   -1.59795  -1.39349  -1.19293  -1.09267  -1.08689
 Alpha  occ. eigenvalues --   -1.04696  -1.04366  -0.96784  -0.95527  -0.87799
 Alpha  occ. eigenvalues --   -0.86095  -0.82362  -0.80477  -0.79037  -0.77409
 Alpha  occ. eigenvalues --   -0.71990  -0.71117  -0.70403  -0.65912  -0.64944
 Alpha  occ. eigenvalues --   -0.64712  -0.62107  -0.61710  -0.60188  -0.58392
 Alpha  occ. eigenvalues --   -0.56046  -0.55195  -0.53504  -0.53208  -0.53021
 Alpha  occ. eigenvalues --   -0.52800  -0.50711  -0.48818  -0.48746  -0.48689
 Alpha  occ. eigenvalues --   -0.47495  -0.46571  -0.46465  -0.44757  -0.44604
 Alpha  occ. eigenvalues --   -0.37272  -0.36296
 Alpha virt. eigenvalues --    0.05119   0.11343   0.16609   0.18884   0.22470
 Alpha virt. eigenvalues --    0.23865   0.24666   0.25849   0.26550   0.27809
 Alpha virt. eigenvalues --    0.29019   0.29565   0.30891   0.31685   0.31706

 Mulliken charges:
               1
     1  C   -0.299022
     2  C   -0.300392
     3  C   -0.476250
     4  H    0.149430
     5  H    0.150463
     6  H    0.153086
     7  H    0.152881
     8  H    0.155909
     9  H    0.156299
    10  H    0.162175
    11  C   -0.297798
    12  C   -0.306240
    13  C   -0.477129
    14  H    0.152311
    15  H    0.152661
    16  H    0.146801
    17  H    0.151473
    18  H    0.160261
    19  H    0.160390
    20  H    0.154085
    21  C   -0.175252
    22  C   -0.218518
    23  C   -0.171273
    24  C    0.158944
    25  C   -0.172753
    26  C   -0.223656
    27  H    0.227380
    28  H    0.223137
    29  H    0.275304
    30  H    0.275566
    31  H    0.232983
    32  N    0.488009
    33  O   -0.460608
    34  O   -0.460655
 Sum of Mulliken charges =  -0.00000

 Dipole moment (field-independent basis, Debye):
    X=             -4.0312    Y=              3.4183    Z=              1.1700  Tot=              5.4134
 Quadrupole moment (field-independent basis, Debye-Ang):
   XX=           -118.6009   YY=            -96.4579   ZZ=            -92.5076
   XY=             14.1585   XZ=              6.2899   YZ=              2.3190

 Normal termination of Gaussian 16 at Wed May  5 18:48:45 2021.
