 Gaussian 16, Revision A.03,
 Gaussian 16:  EM64L-G16RevA.03 25-Dec-2016

 -------------
 #p 6-31g* mp2
 -------------

 ------------------------------------------------------
 Input file generated by CHIRIPA (05-May-2021 14:53:18)
 ------------------------------------------------------
 Symbolic Z-matrix:
 Charge =  0 Multiplicity = 1

                         Standard orientation:
 ---------------------------------------------------------------------
 Center     Atomic      Atomic             Coordinates (Angstroms)
 Number     Number       Type             X           Y           Z
 ---------------------------------------------------------------------
      1          6           0        4.003202    0.172737    0.098432
      2          6           0        5.429800   -0.219428   -0.287584
      3          6           0        6.323941    0.991663   -0.555100
      4          1           0        3.567062    0.781965   -0.705040
      5          1           0        4.034957    0.810840    0.992418
      6          1           0        5.395270   -0.857737   -1.179765
      7          1           0        5.862527   -0.827954    0.516815
      8          1           0        6.388134    1.627050    0.334149
      9          1           0        5.918222    1.597098   -1.372071
     10          1           0        7.339156    0.688395   -0.829378
     11          6           0        3.097250   -1.027167    0.369005
     12          6           0        1.670651   -0.635003    0.755022
     13          6           0        0.776510   -1.846093    1.022538
     14          1           0        3.065494   -1.665271   -0.524981
     15          1           0        3.533389   -1.636396    1.172477
     16          1           0        1.237924   -0.026476   -0.049378
     17          1           0        1.705181    0.003306    1.647202
     18          1           0        1.182229   -2.451529    1.839508
     19          1           0        0.712317   -2.481480    0.133289
     20          1           0       -0.238704   -1.542826    1.296815
     21          6           0       -1.855676    2.663345    0.127821
     22          6           0       -1.064394    1.671965   -0.461722
     23          6           0       -1.562646    0.377759   -0.638707
     24          6           0       -2.862356    0.108547   -0.212602
     25          6           0       -3.675282    1.074722    0.378116
     26          6           0       -3.156301    2.362090    0.545123
     27          1           0       -1.460571    3.666059    0.261432
     28          1           0       -0.053954    1.903063   -0.786760
     29          1           0       -0.971725   -0.408757   -1.092163
     30          1           0       -4.678770    0.814204    0.692057
     31          1           0       -3.773092    3.130014    1.003279
     32          7           0       -3.400805   -1.257952   -0.394687
     33          8           0       -4.549034   -1.469676   -0.010784
     34          8           0       -2.664417   -2.091415   -0.917859
 ---------------------------------------------------------------------

 SCF Done:  E(RHF) =  -669.533697199     A.U. after   15 cycles
 E2 =    -0.2094206186D+01 EUMP2 =    -0.67162790338487D+03

 The electronic state is 1-A.
 Alpha  occ. eigenvalues --  -20.60777 -20.60763 -15.85817 -11.31168 -11.27742
 Alpha  occ. eigenvalues --  -11.27709 -11.27480 -11.26751 -11.26720 -11.22016
 Alpha  occ. eigenvalues --  -11.21941 -11.21828 -11.21706 -11.21402 -11.21073
 Alpha  occ. eigenvalues --   -1.59842  -1.39396  -1.19354  -1.08812  -1.08743
 Alpha  occ. eigenvalues --   -1.04782  -1.03835  -0.96272  -0.95573  -0.87274
 Alpha  occ. eigenvalues --   -0.86142  -0.82441  -0.79920  -0.78658  -0.77457
 Alpha  occ. eigenvalues --   -0.72039  -0.71170  -0.70474  -0.65490  -0.64991
 Alpha  occ. eigenvalues --   -0.64763  -0.62304  -0.61096  -0.59619  -0.57896
 Alpha  occ. eigenvalues --   -0.55575  -0.55205  -0.53194  -0.52900  -0.52839
 Alpha  occ. eigenvalues --   -0.52551  -0.50192  -0.48794  -0.48794  -0.48223
 Alpha  occ. eigenvalues --   -0.46973  -0.46180  -0.46092  -0.44809  -0.44078
 Alpha  occ. eigenvalues --   -0.37325  -0.36282
 Alpha virt. eigenvalues --    0.05053   0.11248   0.16476   0.20235   0.22842
 Alpha virt. eigenvalues --    0.23994   0.25166   0.26541   0.27338   0.28362
 Alpha virt. eigenvalues --    0.28856   0.30770   0.31337   0.31453   0.32405

 Mulliken charges:
               1
     1  C   -0.297487
     2  C   -0.299864
     3  C   -0.475851
     4  H    0.143325
     5  H    0.149168
     6  H    0.153362
     7  H    0.153822
     8  H    0.154957
     9  H    0.153936
    10  H    0.161922
    11  C   -0.297939
    12  C   -0.301545
    13  C   -0.480374
    14  H    0.151273
    15  H    0.152702
    16  H    0.138327
    17  H    0.152472
    18  H    0.157958
    19  H    0.162878
    20  H    0.163483
    21  C   -0.171647
    22  C   -0.217309
    23  C   -0.168878
    24  C    0.155540
    25  C   -0.171290
    26  C   -0.218847
    27  H    0.225674
    28  H    0.224237
    29  H    0.279333
    30  H    0.275477
    31  H    0.223323
    32  N    0.488520
    33  O   -0.460345
    34  O   -0.460316
 Sum of Mulliken charges =  -0.00000

 Dipole moment (field-independent basis, Debye):
    X=              1.9249    Y=              4.7004    Z=              0.6926  Tot=              5.1263
 Quadrupole moment (field-independent basis, Debye-Ang):
   XX=           -102.4201   YY=            -94.2192   ZZ=            -93.9361
   XY=            -15.9093   XZ=             -3.8081   YZ=             -0.1036

 Normal termination of Gaussian 16 at Thu May  6 01:15:16 2021.
