 Gaussian 16, Revision A.03,
 Gaussian 16:  EM64L-G16RevA.03 25-Dec-2016

 -------------
 #p 6-31g* mp2
 -------------

 ------------------------------------------------------
 Input file generated by CHIRIPA (05-May-2021 14:55:22)
 ------------------------------------------------------
 Symbolic Z-matrix:
 Charge =  0 Multiplicity = 1

                         Standard orientation:
 ---------------------------------------------------------------------
 Center     Atomic      Atomic             Coordinates (Angstroms)
 Number     Number       Type             X           Y           Z
 ---------------------------------------------------------------------
      1          6           0       -1.144857    1.254437    2.135827
      2          6           0       -0.636957   -0.002184    1.790194
      3          6           0       -1.199822   -0.730591    0.737980
      4          6           0       -2.274476   -0.169687    0.049653
      5          6           0       -2.802897    1.079861    0.370109
      6          6           0       -2.224303    1.790504    1.425933
      7          1           0       -0.701501    1.813381    2.954614
      8          1           0        0.201278   -0.420980    2.339754
      9          1           0       -0.826376   -1.705591    0.449308
     10          1           0       -3.639294    1.471212   -0.196196
     11          1           0       -2.620815    2.766185    1.692144
     12          7           0       -2.878682   -0.931416   -1.066190
     13          8           0       -3.824776   -0.415201   -1.657008
     14          8           0       -2.394723   -2.030249   -1.328841
     15          6           0        3.037498    0.655817   -0.698865
     16          6           0        2.148665    1.892952   -0.566747
     17          6           0        2.669160    3.083596   -1.372506
     18          1           0        4.055184    0.906466   -0.369570
     19          1           0        3.111692    0.377770   -1.759327
     20          1           0        2.075047    2.167761    0.493289
     21          1           0        1.132930    1.639276   -0.896213
     22          1           0        2.725984    2.833221   -2.436782
     23          1           0        3.673454    3.364709   -1.039384
     24          1           0        2.018743    3.957088   -1.263732
     25          6           0        2.530236   -0.542806    0.100957
     26          6           0        3.419069   -1.779942   -0.031160
     27          6           0        2.898574   -2.970585    0.774599
     28          1           0        2.456042   -0.264759    1.161420
     29          1           0        1.512550   -0.793457   -0.228337
     30          1           0        4.434803   -1.526265    0.298307
     31          1           0        3.492686   -2.054750   -1.091196
     32          1           0        1.894280   -3.251698    0.441478
     33          1           0        2.841750   -2.720210    1.838876
     34          1           0        3.548990   -3.844077    0.665826
 ---------------------------------------------------------------------

 SCF Done:  E(RHF) =  -669.534140679     A.U. after   15 cycles
 E2 =    -0.2094451004D+01 EUMP2 =    -0.67162859168316D+03

 The electronic state is 1-A.
 Alpha  occ. eigenvalues --  -20.60790 -20.60783 -15.85841 -11.31193 -11.27728
 Alpha  occ. eigenvalues --  -11.27715 -11.27455 -11.26760 -11.26702 -11.22036
 Alpha  occ. eigenvalues --  -11.21915 -11.21896 -11.21742 -11.21645 -11.21344
 Alpha  occ. eigenvalues --   -1.59865  -1.39419  -1.19351  -1.08883  -1.08734
 Alpha  occ. eigenvalues --   -1.04749  -1.03941  -0.96411  -0.95588  -0.87426
 Alpha  occ. eigenvalues --   -0.86147  -0.82433  -0.80007  -0.78758  -0.77425
 Alpha  occ. eigenvalues --   -0.72058  -0.71189  -0.70459  -0.65553  -0.64991
 Alpha  occ. eigenvalues --   -0.64709  -0.62116  -0.61324  -0.59771  -0.58029
 Alpha  occ. eigenvalues --   -0.55713  -0.55245  -0.53270  -0.52974  -0.52918
 Alpha  occ. eigenvalues --   -0.52729  -0.50350  -0.48818  -0.48816  -0.48325
 Alpha  occ. eigenvalues --   -0.47029  -0.46211  -0.46139  -0.44824  -0.44199
 Alpha  occ. eigenvalues --   -0.37312  -0.36230
 Alpha virt. eigenvalues --    0.05028   0.11186   0.16494   0.19731   0.22892
 Alpha virt. eigenvalues --    0.23434   0.24661   0.26111   0.27542   0.28709
 Alpha virt. eigenvalues --    0.29081   0.29725   0.31356   0.31551   0.31850

 Mulliken charges:
               1
     1  C   -0.171725
     2  C   -0.211162
     3  C   -0.175342
     4  C    0.157502
     5  C   -0.171978
     6  C   -0.218041
     7  H    0.225138
     8  H    0.226198
     9  H    0.276387
    10  H    0.275348
    11  H    0.223315
    12  N    0.488022
    13  O   -0.460210
    14  O   -0.460978
    15  C   -0.298438
    16  C   -0.299437
    17  C   -0.476102
    18  H    0.149473
    19  H    0.153493
    20  H    0.145329
    21  H    0.157087
    22  H    0.157838
    23  H    0.154603
    24  H    0.159472
    25  C   -0.302391
    26  C   -0.299329
    27  C   -0.478638
    28  H    0.139521
    29  H    0.154849
    30  H    0.152739
    31  H    0.157049
    32  H    0.155122
    33  H    0.149705
    34  H    0.165580
 Sum of Mulliken charges =  -0.00000

 Dipole moment (field-independent basis, Debye):
    X=              2.1807    Y=              2.6694    Z=              3.8363  Tot=              5.1574
 Quadrupole moment (field-independent basis, Debye-Ang):
   XX=           -102.4841   YY=            -93.9988   ZZ=            -94.5506
   XY=             -9.6213   XZ=             -8.0800   YZ=             -0.3112

 Normal termination of Gaussian 16 at Wed May  5 22:18:27 2021.
