 Gaussian 16, Revision A.03,
 Gaussian 16:  EM64L-G16RevA.03 25-Dec-2016

 -------------
 #p 6-31g* mp2
 -------------

 ------------------------------------------------------
 Input file generated by CHIRIPA (05-May-2021 14:57:22)
 ------------------------------------------------------
 Symbolic Z-matrix:
 Charge =  0 Multiplicity = 1

                         Standard orientation:
 ---------------------------------------------------------------------
 Center     Atomic      Atomic             Coordinates (Angstroms)
 Number     Number       Type             X           Y           Z
 ---------------------------------------------------------------------
      1          6           0        3.915532    2.105219   -0.916376
      2          6           0        3.384080    2.145831    0.376849
      3          6           0        2.843509    0.995316    0.958782
      4          6           0        2.850744   -0.184101    0.215671
      5          6           0        3.372863   -0.256503   -1.074848
      6          6           0        3.908240    0.906295   -1.636827
      7          1           0        4.333443    3.003737   -1.360685
      8          1           0        3.388402    3.075535    0.938701
      9          1           0        2.425566    0.998575    1.958147
     10          1           0        3.354424   -1.197994   -1.610266
     11          1           0        4.320290    0.871801   -2.641351
     12          7           0        2.281215   -1.408601    0.821175
     13          8           0        2.299518   -2.435244    0.145671
     14          8           0        1.827298   -1.318535    1.959808
     15          6           0       -4.291077    2.076875    0.291125
     16          6           0       -4.909533    0.938655   -0.236594
     17          6           0       -4.173305   -0.227445   -0.466218
     18          6           0       -2.814438   -0.220209   -0.155224
     19          6           0       -2.169608    0.897797    0.371604
     20          6           0       -2.925497    2.052856    0.593007
     21          1           0       -4.870633    2.978442    0.466309
     22          1           0       -5.969904    0.954425   -0.471986
     23          1           0       -4.626815   -1.122764   -0.873834
     24          1           0       -1.110926    0.851701    0.596293
     25          1           0       -2.442546    2.935331    1.002937
     26          7           0       -2.024619   -1.448863   -0.393966
     27          8           0       -0.828850   -1.416842   -0.111570
     28          8           0       -2.616284   -2.420636   -0.858965
 ---------------------------------------------------------------------

 SCF Done:  E(RHF) =  -868.336183017     A.U. after   16 cycles
 E2 =    -0.2601718228D+01 EUMP2 =    -0.87093790124557D+03

 The electronic state is 1-A.
 Alpha  occ. eigenvalues --  -20.60264 -20.60228 -20.59711 -20.59623 -15.85319
 Alpha  occ. eigenvalues --  -15.84742 -11.30883 -11.30628 -11.27491 -11.27477
 Alpha  occ. eigenvalues --  -11.27302 -11.27281 -11.27182 -11.27082 -11.26569
 Alpha  occ. eigenvalues --  -11.26539 -11.26433 -11.26345  -1.59312  -1.58693
 Alpha  occ. eigenvalues --   -1.38866  -1.38257  -1.19081  -1.18837  -1.08438
 Alpha  occ. eigenvalues --   -1.08130  -1.04521  -1.04324  -0.95240  -0.94886
 Alpha  occ. eigenvalues --   -0.85910  -0.85693  -0.82089  -0.81736  -0.77106
 Alpha  occ. eigenvalues --   -0.76686  -0.71707  -0.70991  -0.70643  -0.70224
 Alpha  occ. eigenvalues --   -0.69944  -0.69761  -0.64730  -0.64536  -0.64482
 Alpha  occ. eigenvalues --   -0.64335  -0.61871  -0.61667  -0.55022  -0.54806
 Alpha  occ. eigenvalues --   -0.52834  -0.52667  -0.52574  -0.52424  -0.48299
 Alpha  occ. eigenvalues --   -0.48276  -0.47744  -0.47693  -0.44268  -0.43489
 Alpha  occ. eigenvalues --   -0.37077  -0.36828  -0.36132  -0.35961
 Alpha virt. eigenvalues --    0.05448   0.05916   0.11520   0.11642   0.16913
 Alpha virt. eigenvalues --    0.17292   0.21489   0.21816   0.27218   0.27695
 Alpha virt. eigenvalues --    0.28272   0.28834   0.30737   0.31451   0.32413

 Mulliken charges:
               1
     1  C   -0.172992
     2  C   -0.219492
     3  C   -0.178045
     4  C    0.164549
     5  C   -0.169241
     6  C   -0.218622
     7  H    0.222523
     8  H    0.218842
     9  H    0.271847
    10  H    0.278417
    11  H    0.222162
    12  N    0.496137
    13  O   -0.450046
    14  O   -0.465245
    15  C   -0.171387
    16  C   -0.218619
    17  C   -0.170904
    18  C    0.158848
    19  C   -0.169345
    20  C   -0.218576
    21  H    0.223868
    22  H    0.222490
    23  H    0.275807
    24  H    0.273773
    25  H    0.220039
    26  N    0.492634
    27  O   -0.459534
    28  O   -0.459888
 Sum of Mulliken charges =  -0.00000

 Dipole moment (field-independent basis, Debye):
    X=             -0.8244    Y=              8.2249    Z=             -1.3668  Tot=              8.3783
 Quadrupole moment (field-independent basis, Debye-Ang):
   XX=            -75.8623   YY=           -107.0616   ZZ=           -103.1968
   XY=              1.3685   XZ=             -7.3406   YZ=              3.8706

 Normal termination of Gaussian 16 at Thu May  6 16:13:52 2021.
