 Gaussian 16, Revision A.03,
 Gaussian 16:  EM64L-G16RevA.03 25-Dec-2016

 -------------
 #p 6-31g* mp2
 -------------

 ------------------------------------------------------
 Input file generated by CHIRIPA (05-May-2021 14:51:14)
 ------------------------------------------------------
 Symbolic Z-matrix:
 Charge =  0 Multiplicity = 1

                         Standard orientation:
 ---------------------------------------------------------------------
 Center     Atomic      Atomic             Coordinates (Angstroms)
 Number     Number       Type             X           Y           Z
 ---------------------------------------------------------------------
      1          6           0       -2.138511   -0.311923    1.005309
      2          6           0       -1.414741   -1.624369    1.308005
      3          6           0       -0.548178   -1.545243    2.565224
      4          1           0       -1.396903    0.490550    0.891292
      5          1           0       -2.764189   -0.039262    1.866459
      6          1           0       -0.791682   -1.895188    0.445989
      7          1           0       -2.158148   -2.423848    1.421125
      8          1           0       -1.159387   -1.299034    3.439527
      9          1           0        0.214843   -0.767371    2.458850
     10          1           0       -0.039975   -2.494196    2.762908
     11          6           0       -3.008817   -0.375268   -0.248598
     12          6           0       -3.732587    0.937179   -0.551294
     13          6           0       -4.599150    0.858053   -1.808514
     14          1           0       -2.383139   -0.647929   -1.109748
     15          1           0       -3.750425   -1.177740   -0.134581
     16          1           0       -2.989180    1.736657   -0.664414
     17          1           0       -4.355646    1.207997    0.310722
     18          1           0       -5.362171    0.080180   -1.702140
     19          1           0       -3.987941    0.611844   -2.682816
     20          1           0       -5.107353    1.807006   -2.006197
     21          6           0        3.002062   -0.264300   -0.552627
     22          6           0        2.189070   -1.449603   -1.074244
     23          6           0        3.060123   -2.658116   -1.418564
     24          1           0        3.746873    0.021983   -1.307774
     25          1           0        3.564350   -0.577797    0.337849
     26          1           0        1.627410   -1.133582   -1.962661
     27          1           0        1.445982   -1.732975   -0.317848
     28          1           0        3.609652   -3.000912   -0.535891
     29          1           0        3.792112   -2.398112   -2.190050
     30          1           0        2.458646   -3.493886   -1.789475
     31          6           0        2.145266    0.951490   -0.204083
     32          6           0        2.958258    2.136793    0.317533
     33          6           0        2.087205    3.345307    0.661853
     34          1           0        1.582978    1.264988   -1.094560
     35          1           0        1.400455    0.665207    0.551062
     36          1           0        3.701346    2.420165   -0.438863
     37          1           0        3.519918    1.820772    1.205950
     38          1           0        1.355217    3.085303    1.433340
     39          1           0        1.537677    3.688102   -0.220819
     40          1           0        2.688681    4.181077    1.032764
 ---------------------------------------------------------------------

 SCF Done:  E(RHF) =  -470.733092515     A.U. after   11 cycles
 E2 =    -0.1584219073D+01 EUMP2 =    -0.47231731158780D+03

 The electronic state is 1-A.
 Alpha  occ. eigenvalues --  -11.21656 -11.21631 -11.21586 -11.21577 -11.21471
 Alpha  occ. eigenvalues --  -11.21406 -11.21381 -11.21321 -11.21131 -11.21120
 Alpha  occ. eigenvalues --  -11.21101 -11.21056  -1.08504  -1.08404  -1.03587
 Alpha  occ. eigenvalues --   -1.03526  -0.96027  -0.95985  -0.87044  -0.87000
 Alpha  occ. eigenvalues --   -0.79707  -0.79540  -0.78317  -0.78226  -0.65311
 Alpha  occ. eigenvalues --   -0.64887  -0.61079  -0.60843  -0.59426  -0.59322
 Alpha  occ. eigenvalues --   -0.57661  -0.57573  -0.55339  -0.55255  -0.52716
 Alpha  occ. eigenvalues --   -0.52681  -0.52455  -0.52411  -0.50022  -0.49891
 Alpha  occ. eigenvalues --   -0.48071  -0.47905  -0.46897  -0.46404  -0.46092
 Alpha  occ. eigenvalues --   -0.45789  -0.45597  -0.45423  -0.43834  -0.43776
 Alpha virt. eigenvalues --    0.19513   0.23378   0.23480   0.24027   0.25982
 Alpha virt. eigenvalues --    0.26469   0.27219   0.27720   0.28257   0.29761
 Alpha virt. eigenvalues --    0.30201   0.31577   0.31745   0.31926   0.32316

 Mulliken charges:
               1
     1  C   -0.300888
     2  C   -0.305928
     3  C   -0.479187
     4  H    0.152389
     5  H    0.149283
     6  H    0.157857
     7  H    0.152369
     8  H    0.155844
     9  H    0.156552
    10  H    0.160277
    11  C   -0.298271
    12  C   -0.299806
    13  C   -0.475693
    14  H    0.150089
    15  H    0.149445
    16  H    0.152331
    17  H    0.151810
    18  H    0.155110
    19  H    0.155064
    20  H    0.160191
    21  C   -0.297258
    22  C   -0.308630
    23  C   -0.475212
    24  H    0.149994
    25  H    0.149790
    26  H    0.151128
    27  H    0.161056
    28  H    0.155400
    29  H    0.155289
    30  H    0.160290
    31  C   -0.306280
    32  C   -0.299414
    33  C   -0.476028
    34  H    0.149312
    35  H    0.156201
    36  H    0.152355
    37  H    0.152210
    38  H    0.155131
    39  H    0.155102
    40  H    0.160724
 Sum of Mulliken charges =  -0.00000

 Dipole moment (field-independent basis, Debye):
    X=              0.0197    Y=             -0.0007    Z=             -0.0021  Tot=              0.0198
 Quadrupole moment (field-independent basis, Debye-Ang):
   XX=            -84.8148   YY=            -85.4592   ZZ=            -84.4386
   XY=              0.8316   XZ=             -0.9919   YZ=             -0.6978

 Normal termination of Gaussian 16 at Wed May  5 23:17:14 2021.
