 Gaussian 16, Revision A.03,
 Gaussian 16:  EM64L-G16RevA.03 25-Dec-2016

 -------------
 #p 6-31g* mp2
 -------------

 ------------------------------------------------------
 Input file generated by CHIRIPA (05-May-2021 14:51:09)
 ------------------------------------------------------
 Symbolic Z-matrix:
 Charge =  0 Multiplicity = 1

                         Standard orientation:
 ---------------------------------------------------------------------
 Center     Atomic      Atomic             Coordinates (Angstroms)
 Number     Number       Type             X           Y           Z
 ---------------------------------------------------------------------
      1          6           0       -2.675684   -0.197438   -0.062142
      2          6           0       -3.999998    0.083134    0.648813
      3          6           0       -4.392942    1.560125    0.605371
      4          1           0       -1.883589    0.407917    0.399458
      5          1           0       -2.751793    0.132094   -1.107614
      6          1           0       -3.921876   -0.248097    1.692268
      7          1           0       -4.788996   -0.523103    0.185591
      8          1           0       -4.498395    1.900419   -0.429849
      9          1           0       -3.626349    2.176988    1.085389
     10          1           0       -5.342625    1.738185    1.119430
     11          6           0       -2.269393   -1.669661   -0.027252
     12          6           0       -0.945079   -1.950233   -0.738207
     13          6           0       -0.552136   -3.427224   -0.694766
     14          1           0       -2.193284   -1.999193    1.018219
     15          1           0       -3.061489   -2.275016   -0.488852
     16          1           0       -0.156081   -1.343996   -0.274986
     17          1           0       -1.023201   -1.619002   -1.781663
     18          1           0       -1.318728   -4.044086   -1.174783
     19          1           0       -0.446682   -3.767518    0.340454
     20          1           0        0.397547   -3.605284   -1.208825
     21          6           0        3.096474    0.516328   -0.096948
     22          6           0        3.288434   -0.640032    0.884870
     23          6           0        4.540885   -1.465449    0.588481
     24          1           0        3.040312    0.116093   -1.118517
     25          1           0        3.981563    1.166670   -0.064260
     26          1           0        2.402648   -1.287240    0.851350
     27          1           0        3.343953   -0.237014    1.904238
     28          1           0        5.436874   -0.838557    0.641500
     29          1           0        4.490221   -1.894748   -0.417370
     30          1           0        4.658692   -2.286682    1.302315
     31          6           0        1.848604    1.350771    0.186343
     32          6           0        1.656643    2.507131   -0.795476
     33          6           0        0.404192    3.332547   -0.499087
     34          1           0        0.963515    0.700429    0.153654
     35          1           0        1.904765    1.751005    1.207911
     36          1           0        1.601124    2.104113   -1.814843
     37          1           0        2.542429    3.154337   -0.761956
     38          1           0        0.454856    3.761846    0.506764
     39          1           0       -0.491796    2.705655   -0.552106
     40          1           0        0.286386    4.153781   -1.212920
 ---------------------------------------------------------------------

 SCF Done:  E(RHF) =  -470.733180320     A.U. after   11 cycles
 E2 =    -0.1584283005D+01 EUMP2 =    -0.47231746332449D+03

 The electronic state is 1-A.
 Alpha  occ. eigenvalues --  -11.21667 -11.21634 -11.21615 -11.21576 -11.21465
 Alpha  occ. eigenvalues --  -11.21406 -11.21395 -11.21332 -11.21136 -11.21078
 Alpha  occ. eigenvalues --  -11.21076 -11.21027  -1.08504  -1.08414  -1.03581
 Alpha  occ. eigenvalues --   -1.03517  -0.96026  -0.95968  -0.87044  -0.86981
 Alpha  occ. eigenvalues --   -0.79653  -0.79585  -0.78429  -0.78134  -0.65302
 Alpha  occ. eigenvalues --   -0.64897  -0.61013  -0.60884  -0.59405  -0.59331
 Alpha  occ. eigenvalues --   -0.57641  -0.57575  -0.55315  -0.55255  -0.52721
 Alpha  occ. eigenvalues --   -0.52660  -0.52467  -0.52377  -0.49990  -0.49893
 Alpha  occ. eigenvalues --   -0.47991  -0.47899  -0.46819  -0.46686  -0.46257
 Alpha  occ. eigenvalues --   -0.45793  -0.45752  -0.45014  -0.43833  -0.43771
 Alpha virt. eigenvalues --    0.20083   0.22064   0.23590   0.24554   0.25426
 Alpha virt. eigenvalues --    0.26772   0.27233   0.27251   0.27751   0.29786
 Alpha virt. eigenvalues --    0.31284   0.31536   0.31833   0.32030   0.32198

 Mulliken charges:
               1
     1  C   -0.304430
     2  C   -0.299531
     3  C   -0.476466
     4  H    0.154895
     5  H    0.149486
     6  H    0.152142
     7  H    0.152165
     8  H    0.155268
     9  H    0.156243
    10  H    0.160453
    11  C   -0.297533
    12  C   -0.310547
    13  C   -0.475148
    14  H    0.149696
    15  H    0.150080
    16  H    0.161226
    17  H    0.151756
    18  H    0.155619
    19  H    0.155390
    20  H    0.160217
    21  C   -0.297611
    22  C   -0.303220
    23  C   -0.475482
    24  H    0.149851
    25  H    0.149734
    26  H    0.154408
    27  H    0.151846
    28  H    0.155270
    29  H    0.155205
    30  H    0.160301
    31  C   -0.308385
    32  C   -0.298666
    33  C   -0.479745
    34  H    0.158445
    35  H    0.149143
    36  H    0.152061
    37  H    0.151777
    38  H    0.154490
    39  H    0.159373
    40  H    0.160223
 Sum of Mulliken charges =  -0.00000

 Dipole moment (field-independent basis, Debye):
    X=             -0.0285    Y=             -0.0166    Z=              0.0014  Tot=              0.0330
 Quadrupole moment (field-independent basis, Debye-Ang):
   XX=            -85.1114   YY=            -85.9586   ZZ=            -83.6323
   XY=              1.4223   XZ=              0.8493   YZ=              0.3967

 Normal termination of Gaussian 16 at Wed May  5 22:59:12 2021.
