 Gaussian 16, Revision A.03,
 Gaussian 16:  EM64L-G16RevA.03 25-Dec-2016

 -------------
 #p 6-31g* mp2
 -------------

 ------------------------------------------------------
 Input file generated by CHIRIPA (05-May-2021 14:51:12)
 ------------------------------------------------------
 Symbolic Z-matrix:
 Charge =  0 Multiplicity = 1

                         Standard orientation:
 ---------------------------------------------------------------------
 Center     Atomic      Atomic             Coordinates (Angstroms)
 Number     Number       Type             X           Y           Z
 ---------------------------------------------------------------------
      1          6           0        3.781581   -0.589266   -0.533081
      2          6           0        3.357477   -1.812337    0.280687
      3          6           0        3.246198   -3.078367   -0.569358
      4          1           0        3.057246   -0.426423   -1.342875
      5          1           0        4.747675   -0.794871   -1.014518
      6          1           0        2.393134   -1.603971    0.761564
      7          1           0        4.082801   -1.972172    1.088756
      8          1           0        4.207425   -3.313710   -1.037607
      9          1           0        2.508157   -2.943418   -1.366658
     10          1           0        2.941826   -3.940452    0.032329
     11          6           0        3.897214    0.684169    0.302815
     12          6           0        4.321317    1.907240   -0.510953
     13          6           0        4.432597    3.173270    0.339092
     14          1           0        2.931119    0.889774    0.784253
     15          1           0        4.621548    0.521327    1.112610
     16          1           0        3.595993    2.067075   -1.319021
     17          1           0        5.285660    1.698875   -0.991830
     18          1           0        5.170637    3.038321    1.136392
     19          1           0        3.471370    3.408614    0.807341
     20          1           0        4.736969    4.035355   -0.262595
     21          6           0       -3.341211   -0.483094    0.496523
     22          6           0       -1.887609   -0.241216    0.088453
     23          6           0       -0.902871   -1.120121    0.860211
     24          1           0       -3.448616   -0.297633    1.574026
     25          1           0       -3.588745   -1.541460    0.335324
     26          1           0       -1.643306    0.816675    0.249072
     27          1           0       -1.783694   -0.427089   -0.988240
     28          1           0       -1.118459   -2.180124    0.691345
     29          1           0       -0.977274   -0.929293    1.935688
     30          1           0        0.130338   -0.930881    0.552754
     31          6           0       -4.337583    0.388191   -0.266256
     32          6           0       -5.791186    0.146312    0.141812
     33          6           0       -6.775923    1.025218   -0.629945
     34          1           0       -4.090049    1.446556   -0.105059
     35          1           0       -4.230178    0.202729   -1.343761
     36          1           0       -5.895100    0.332186    1.218506
     37          1           0       -6.035489   -0.911579   -0.018806
     38          1           0       -6.701520    0.834389   -1.705423
     39          1           0       -6.560335    2.085221   -0.461080
     40          1           0       -7.809132    0.835977   -0.322489
 ---------------------------------------------------------------------

 SCF Done:  E(RHF) =  -470.733308323     A.U. after   11 cycles
 E2 =    -0.1582517268D+01 EUMP2 =    -0.47231582559182D+03

 The electronic state is 1-A.
 Alpha  occ. eigenvalues --  -11.21660 -11.21624 -11.21596 -11.21546 -11.21440
 Alpha  occ. eigenvalues --  -11.21396 -11.21380 -11.21336 -11.21127 -11.21089
 Alpha  occ. eigenvalues --  -11.21067 -11.21037  -1.08469  -1.08417  -1.03576
 Alpha  occ. eigenvalues --   -1.03505  -0.96023  -0.95959  -0.87047  -0.86971
 Alpha  occ. eigenvalues --   -0.79659  -0.79550  -0.78281  -0.78227  -0.65096
 Alpha  occ. eigenvalues --   -0.65070  -0.60978  -0.60942  -0.59419  -0.59282
 Alpha  occ. eigenvalues --   -0.57635  -0.57563  -0.55311  -0.55242  -0.52764
 Alpha  occ. eigenvalues --   -0.52638  -0.52450  -0.52375  -0.49957  -0.49899
 Alpha  occ. eigenvalues --   -0.47994  -0.47854  -0.46664  -0.46602  -0.45821
 Alpha  occ. eigenvalues --   -0.45770  -0.45744  -0.45701  -0.43794  -0.43740
 Alpha virt. eigenvalues --    0.20847   0.23015   0.23965   0.24879   0.26085
 Alpha virt. eigenvalues --    0.26621   0.27267   0.27448   0.27953   0.28747
 Alpha virt. eigenvalues --    0.30810   0.31377   0.31693   0.31781   0.32036

 Mulliken charges:
               1
     1  C   -0.298434
     2  C   -0.306764
     3  C   -0.475310
     4  H    0.149326
     5  H    0.149660
     6  H    0.158773
     7  H    0.152093
     8  H    0.154974
     9  H    0.154997
    10  H    0.160396
    11  C   -0.298835
    12  C   -0.299626
    13  C   -0.475690
    14  H    0.149476
    15  H    0.149840
    16  H    0.151975
    17  H    0.151975
    18  H    0.155186
    19  H    0.155132
    20  H    0.160229
    21  C   -0.298678
    22  C   -0.299202
    23  C   -0.482349
    24  H    0.149790
    25  H    0.149720
    26  H    0.151726
    27  H    0.151883
    28  H    0.155949
    29  H    0.155576
    30  H    0.165871
    31  C   -0.298259
    32  C   -0.299663
    33  C   -0.475726
    34  H    0.149537
    35  H    0.149679
    36  H    0.152003
    37  H    0.152005
    38  H    0.155208
    39  H    0.155209
    40  H    0.160347
 Sum of Mulliken charges =  -0.00000

 Dipole moment (field-independent basis, Debye):
    X=             -0.0203    Y=             -0.0062    Z=              0.0091  Tot=              0.0231
 Quadrupole moment (field-independent basis, Debye-Ang):
   XX=            -84.5186   YY=            -85.5353   ZZ=            -84.6854
   XY=              0.2116   XZ=             -0.1861   YZ=              0.2677

 Normal termination of Gaussian 16 at Wed May  5 16:47:30 2021.
