 Gaussian 16, Revision A.03,
 Gaussian 16:  EM64L-G16RevA.03 25-Dec-2016

 -------------
 #p 6-31g* mp2
 -------------

 ------------------------------------------------------
 Input file generated by CHIRIPA (05-May-2021 14:51:12)
 ------------------------------------------------------
 Symbolic Z-matrix:
 Charge =  0 Multiplicity = 1

                         Standard orientation:
 ---------------------------------------------------------------------
 Center     Atomic      Atomic             Coordinates (Angstroms)
 Number     Number       Type             X           Y           Z
 ---------------------------------------------------------------------
      1          6           0       -2.895474   -0.220382   -0.202492
      2          6           0       -3.664294   -1.297314    0.563746
      3          6           0       -3.304527   -2.713616    0.113801
      4          1           0       -3.098649   -0.328082   -1.276766
      5          1           0       -1.817190   -0.385330   -0.070239
      6          1           0       -4.740822   -1.129566    0.431220
      7          1           0       -3.459416   -1.186918    1.636338
      8          1           0       -2.236865   -2.905350    0.261916
      9          1           0       -3.525552   -2.847672   -0.950049
     10          1           0       -3.865619   -3.467686    0.674526
     11          6           0       -3.244289    1.200796    0.236039
     12          6           0       -2.475469    2.277727   -0.530198
     13          6           0       -2.835236    3.694029   -0.080254
     14          1           0       -4.322573    1.365743    0.103787
     15          1           0       -3.041114    1.308495    1.310314
     16          1           0       -2.680346    2.167331   -1.602790
     17          1           0       -1.398940    2.109979   -0.397673
     18          1           0       -2.614210    3.828085    0.983597
     19          1           0       -3.902897    3.885763   -0.228368
     20          1           0       -2.274144    4.448099   -0.640979
     21          6           0        3.785830   -0.255338   -0.142023
     22          6           0        4.071227    1.141443    0.410731
     23          6           0        5.507613    1.597329    0.152359
     24          1           0        4.486119   -0.971476    0.309293
     25          1           0        3.984909   -0.262168   -1.222632
     26          1           0        3.870342    1.146003    1.489730
     27          1           0        3.370051    1.854307   -0.041809
     28          1           0        5.716874    1.621147   -0.921997
     29          1           0        6.220008    0.908818    0.618244
     30          1           0        5.689831    2.598291    0.555760
     31          6           0        2.353934   -0.725076    0.108475
     32          6           0        2.068535   -2.121856   -0.444278
     33          6           0        0.632149   -2.577742   -0.185907
     34          1           0        2.154853   -0.718245    1.189084
     35          1           0        1.653643   -0.008937   -0.342840
     36          1           0        2.769712   -2.834721    0.008261
     37          1           0        2.269420   -2.126416   -1.523278
     38          1           0       -0.080245   -1.889231   -0.651792
     39          1           0        0.422889   -2.601560    0.888450
     40          1           0        0.449931   -3.578704   -0.589307
 ---------------------------------------------------------------------

 SCF Done:  E(RHF) =  -470.732518181     A.U. after   11 cycles
 E2 =    -0.1583697975D+01 EUMP2 =    -0.47231621615639D+03

 The electronic state is 1-A.
 Alpha  occ. eigenvalues --  -11.21638 -11.21633 -11.21598 -11.21518 -11.21455
 Alpha  occ. eigenvalues --  -11.21392 -11.21361 -11.21291 -11.21102 -11.21094
 Alpha  occ. eigenvalues --  -11.21065 -11.20884  -1.08478  -1.08383  -1.03588
 Alpha  occ. eigenvalues --   -1.03461  -0.96044  -0.95907  -0.87078  -0.86918
 Alpha  occ. eigenvalues --   -0.79731  -0.79474  -0.78339  -0.78151  -0.65134
 Alpha  occ. eigenvalues --   -0.64996  -0.60995  -0.60862  -0.59401  -0.59301
 Alpha  occ. eigenvalues --   -0.57633  -0.57534  -0.55346  -0.55194  -0.52783
 Alpha  occ. eigenvalues --   -0.52622  -0.52474  -0.52286  -0.50022  -0.49823
 Alpha  occ. eigenvalues --   -0.48145  -0.47744  -0.46739  -0.46531  -0.46026
 Alpha  occ. eigenvalues --   -0.45762  -0.45714  -0.45257  -0.43816  -0.43729
 Alpha virt. eigenvalues --    0.21483   0.23071   0.23627   0.24386   0.25514
 Alpha virt. eigenvalues --    0.26624   0.27158   0.27215   0.28317   0.29569
 Alpha virt. eigenvalues --    0.30216   0.31035   0.31646   0.31917   0.32159

 Mulliken charges:
               1
     1  C   -0.304979
     2  C   -0.298662
     3  C   -0.484821
     4  H    0.148716
     5  H    0.155857
     6  H    0.151368
     7  H    0.151224
     8  H    0.168535
     9  H    0.153846
    10  H    0.159104
    11  C   -0.297526
    12  C   -0.299848
    13  C   -0.475638
    14  H    0.149496
    15  H    0.149648
    16  H    0.151690
    17  H    0.151456
    18  H    0.155318
    19  H    0.155257
    20  H    0.160053
    21  C   -0.298264
    22  C   -0.299686
    23  C   -0.475741
    24  H    0.149894
    25  H    0.149791
    26  H    0.151862
    27  H    0.151964
    28  H    0.155297
    29  H    0.155233
    30  H    0.160369
    31  C   -0.299020
    32  C   -0.300562
    33  C   -0.483068
    34  H    0.149260
    35  H    0.149453
    36  H    0.152059
    37  H    0.152306
    38  H    0.163180
    39  H    0.154129
    40  H    0.161446
 Sum of Mulliken charges =  -0.00000

 Dipole moment (field-independent basis, Debye):
    X=              0.0502    Y=             -0.0200    Z=             -0.0053  Tot=              0.0543
 Quadrupole moment (field-independent basis, Debye-Ang):
   XX=            -85.3874   YY=            -86.0108   ZZ=            -83.5493
   XY=             -0.5123   XZ=              0.9138   YZ=             -0.5509

 Normal termination of Gaussian 16 at Thu May  6 00:42:46 2021.
