 Gaussian 16, Revision A.03,
 Gaussian 16:  EM64L-G16RevA.03 25-Dec-2016

 -------------
 #p 6-31g* mp2
 -------------

 ------------------------------------------------------
 Input file generated by CHIRIPA (05-May-2021 14:55:22)
 ------------------------------------------------------
 Symbolic Z-matrix:
 Charge =  0 Multiplicity = 1

                         Standard orientation:
 ---------------------------------------------------------------------
 Center     Atomic      Atomic             Coordinates (Angstroms)
 Number     Number       Type             X           Y           Z
 ---------------------------------------------------------------------
      1          6           0       -0.867856    1.929784   -0.316236
      2          6           0       -1.556692    1.390062   -1.407440
      3          6           0       -2.650032    0.541926   -1.207883
      4          6           0       -3.029068    0.253374    0.102215
      5          6           0       -2.363037    0.775460    1.209969
      6          6           0       -1.272514    1.621304    0.986689
      7          1           0       -0.019618    2.587746   -0.480471
      8          1           0       -1.244662    1.627893   -2.420415
      9          1           0       -3.201194    0.110280   -2.034515
     10          1           0       -2.697604    0.520063    2.208095
     11          1           0       -0.739430    2.039012    1.836034
     12          7           0       -4.185047   -0.643296    0.326035
     13          8           0       -4.499122   -0.882048    1.490076
     14          8           0       -4.755140   -1.090376   -0.666815
     15          6           0        3.064807   -1.018626   -0.012713
     16          6           0        1.771816   -0.576566   -0.698818
     17          6           0        0.643719   -1.597591   -0.548160
     18          1           0        3.383131   -1.983280   -0.431110
     19          1           0        2.865203   -1.191163    1.053957
     20          1           0        1.974112   -0.403579   -1.763603
     21          1           0        1.456636    0.387242   -0.278874
     22          1           0        0.413228   -1.763814    0.509122
     23          1           0        0.933643   -2.559127   -0.984043
     24          1           0       -0.271142   -1.261454   -1.046056
     25          6           0        4.201878   -0.008334   -0.154525
     26          6           0        5.494869   -0.450394    0.531580
     27          6           0        6.622967    0.570632    0.380923
     28          1           0        4.401482    0.164203   -1.221195
     29          1           0        3.883555    0.956320    0.263872
     30          1           0        5.810049   -1.414202    0.111636
     31          1           0        5.292573   -0.623380    1.596366
     32          1           0        6.333042    1.532167    0.816806
     33          1           0        6.853457    0.736853   -0.676360
     34          1           0        7.537827    0.234494    0.878820
 ---------------------------------------------------------------------

 SCF Done:  E(RHF) =  -669.533826316     A.U. after   15 cycles
 E2 =    -0.2094743379D+01 EUMP2 =    -0.67162856969532D+03

 The electronic state is 1-A.
 Alpha  occ. eigenvalues --  -20.60804 -20.60799 -15.85862 -11.31254 -11.27856
 Alpha  occ. eigenvalues --  -11.27838 -11.27576 -11.26862 -11.26832 -11.21992
 Alpha  occ. eigenvalues --  -11.21933 -11.21852 -11.21727 -11.21453 -11.21111
 Alpha  occ. eigenvalues --   -1.59880  -1.39433  -1.19458  -1.08892  -1.08769
 Alpha  occ. eigenvalues --   -1.04867  -1.03857  -0.96290  -0.95670  -0.87304
 Alpha  occ. eigenvalues --   -0.86254  -0.82502  -0.79944  -0.78658  -0.77533
 Alpha  occ. eigenvalues --   -0.72080  -0.71204  -0.70572  -0.65465  -0.65104
 Alpha  occ. eigenvalues --   -0.64856  -0.62205  -0.61292  -0.59745  -0.58002
 Alpha  occ. eigenvalues --   -0.55630  -0.55363  -0.53547  -0.52948  -0.52795
 Alpha  occ. eigenvalues --   -0.52291  -0.50234  -0.48841  -0.48832  -0.48265
 Alpha  occ. eigenvalues --   -0.47006  -0.46198  -0.46129  -0.44833  -0.44130
 Alpha  occ. eigenvalues --   -0.37310  -0.36424
 Alpha virt. eigenvalues --    0.04975   0.11111   0.16398   0.20903   0.22631
 Alpha virt. eigenvalues --    0.24147   0.25957   0.26719   0.27180   0.27752
 Alpha virt. eigenvalues --    0.28710   0.30597   0.31284   0.31862   0.31948

 Mulliken charges:
               1
     1  C   -0.168095
     2  C   -0.216870
     3  C   -0.175050
     4  C    0.162285
     5  C   -0.170136
     6  C   -0.217813
     7  H    0.226955
     8  H    0.224515
     9  H    0.276208
    10  H    0.276027
    11  H    0.223712
    12  N    0.488091
    13  O   -0.460301
    14  O   -0.460333
    15  C   -0.297850
    16  C   -0.300134
    17  C   -0.478788
    18  H    0.151686
    19  H    0.149563
    20  H    0.147214
    21  H    0.146440
    22  H    0.155180
    23  H    0.155221
    24  H    0.165102
    25  C   -0.297335
    26  C   -0.299744
    27  C   -0.475741
    28  H    0.149110
    29  H    0.144020
    30  H    0.153721
    31  H    0.152334
    32  H    0.153742
    33  H    0.155323
    34  H    0.161740
 Sum of Mulliken charges =  -0.00000

 Dipole moment (field-independent basis, Debye):
    X=              3.9860    Y=              3.1740    Z=             -0.7766  Tot=              5.1542
 Quadrupole moment (field-independent basis, Debye-Ang):
   XX=           -120.8665   YY=            -94.0149   ZZ=            -89.2877
   XY=             -9.3881   XZ=              3.3177   YZ=              1.0344

 Normal termination of Gaussian 16 at Thu May  6 12:34:20 2021.
