 Gaussian 16, Revision A.03,
 Gaussian 16:  EM64L-G16RevA.03 25-Dec-2016

 -------------
 #p 6-31g* mp2
 -------------

 ------------------------------------------------------
 Input file generated by CHIRIPA (05-May-2021 14:53:17)
 ------------------------------------------------------
 Symbolic Z-matrix:
 Charge =  0 Multiplicity = 1

                         Standard orientation:
 ---------------------------------------------------------------------
 Center     Atomic      Atomic             Coordinates (Angstroms)
 Number     Number       Type             X           Y           Z
 ---------------------------------------------------------------------
      1          6           0        3.248199    0.859018   -0.408295
      2          6           0        2.071615    0.830471   -1.384419
      3          6           0        1.597723    2.229270   -1.780123
      4          1           0        2.956157    1.417063    0.491839
      5          1           0        4.080131    1.413805   -0.863813
      6          1           0        1.242638    0.274715   -0.927747
      7          1           0        2.366430    0.272265   -2.282253
      8          1           0        2.407388    2.789102   -2.259322
      9          1           0        1.277211    2.791567   -0.897120
     10          1           0        0.756050    2.185432   -2.478354
     11          6           0        3.733269   -0.531824   -0.003332
     12          6           0        4.909854   -0.503277    0.972793
     13          6           0        5.383746   -1.902076    1.368497
     14          1           0        2.901338   -1.086610    0.452187
     15          1           0        4.025312   -1.089869   -0.903466
     16          1           0        4.615039    0.054930    1.870627
     17          1           0        5.738831    0.052479    0.516121
     18          1           0        5.704257   -2.464373    0.485493
     19          1           0        4.574081   -2.461908    1.847695
     20          1           0        6.225418   -1.858238    2.066727
     21          6           0       -2.394967    2.000180    1.475038
     22          6           0       -1.661624    1.778521    0.304740
     23          6           0       -1.837494    0.603087   -0.431448
     24          6           0       -2.759249   -0.333537    0.033735
     25          6           0       -3.504853   -0.141677    1.195869
     26          6           0       -3.312623    1.041064    1.916090
     27          1           0       -2.251992    2.916124    2.040725
     28          1           0       -0.948271    2.521628   -0.040168
     29          1           0       -1.282962    0.405911   -1.340861
     30          1           0       -4.208679   -0.900928    1.514593
     31          1           0       -3.883530    1.210527    2.824601
     32          7           0       -2.954095   -1.581784   -0.737182
     33          8           0       -3.772309   -2.391344   -0.306167
     34          8           0       -2.284911   -1.726964   -1.757845
 ---------------------------------------------------------------------

 SCF Done:  E(RHF) =  -669.535048911     A.U. after   15 cycles
 E2 =    -0.2092518023D+01 EUMP2 =    -0.67162756693429D+03

 The electronic state is 1-A.
 Alpha  occ. eigenvalues --  -20.60752 -20.60747 -15.85804 -11.31166 -11.27738
 Alpha  occ. eigenvalues --  -11.27700 -11.27466 -11.26757 -11.26687 -11.22157
 Alpha  occ. eigenvalues --  -11.22003 -11.21806 -11.21784 -11.21585 -11.21165
 Alpha  occ. eigenvalues --   -1.59828  -1.39381  -1.19337  -1.08805  -1.08730
 Alpha  occ. eigenvalues --   -1.04746  -1.03955  -0.96433  -0.95568  -0.87449
 Alpha  occ. eigenvalues --   -0.86134  -0.82398  -0.80025  -0.78567  -0.77452
 Alpha  occ. eigenvalues --   -0.72022  -0.71152  -0.70455  -0.65471  -0.64978
 Alpha  occ. eigenvalues --   -0.64752  -0.62272  -0.61195  -0.59797  -0.58012
 Alpha  occ. eigenvalues --   -0.55758  -0.55196  -0.53142  -0.53073  -0.52955
 Alpha  occ. eigenvalues --   -0.52727  -0.50326  -0.48780  -0.48778  -0.48330
 Alpha  occ. eigenvalues --   -0.47030  -0.46116  -0.46011  -0.44786  -0.44186
 Alpha  occ. eigenvalues --   -0.37321  -0.36320
 Alpha virt. eigenvalues --    0.05042   0.11262   0.16486   0.19798   0.22878
 Alpha virt. eigenvalues --    0.23850   0.25848   0.26103   0.26739   0.28064
 Alpha virt. eigenvalues --    0.29263   0.30189   0.31403   0.31621   0.32404

 Mulliken charges:
               1
     1  C   -0.297987
     2  C   -0.305167
     3  C   -0.483055
     4  H    0.147329
     5  H    0.150570
     6  H    0.153943
     7  H    0.159272
     8  H    0.162693
     9  H    0.147616
    10  H    0.159105
    11  C   -0.299293
    12  C   -0.299924
    13  C   -0.476033
    14  H    0.152394
    15  H    0.152407
    16  H    0.150803
    17  H    0.151848
    18  H    0.156582
    19  H    0.156488
    20  H    0.160356
    21  C   -0.171880
    22  C   -0.223329
    23  C   -0.176149
    24  C    0.158390
    25  C   -0.171124
    26  C   -0.218394
    27  H    0.225631
    28  H    0.231554
    29  H    0.279479
    30  H    0.275462
    31  H    0.223287
    32  N    0.488082
    33  O   -0.460586
    34  O   -0.460371
 Sum of Mulliken charges =  -0.00000

 Dipole moment (field-independent basis, Debye):
    X=              0.8348    Y=              4.3256    Z=              2.6764  Tot=              5.1547
 Quadrupole moment (field-independent basis, Debye-Ang):
   XX=            -96.0318   YY=            -98.8411   ZZ=            -92.1628
   XY=            -10.9755   XZ=            -11.1198   YZ=             -1.5218

 Normal termination of Gaussian 16 at Wed May  5 17:16:30 2021.
