 Gaussian 16, Revision A.03,
 Gaussian 16:  EM64L-G16RevA.03 25-Dec-2016

 -------------
 #p 6-31g* mp2
 -------------

 ------------------------------------------------------
 Input file generated by CHIRIPA (05-May-2021 14:55:22)
 ------------------------------------------------------
 Symbolic Z-matrix:
 Charge =  0 Multiplicity = 1

                         Standard orientation:
 ---------------------------------------------------------------------
 Center     Atomic      Atomic             Coordinates (Angstroms)
 Number     Number       Type             X           Y           Z
 ---------------------------------------------------------------------
      1          6           0       -4.508711    2.208785   -0.453164
      2          6           0       -3.603241    2.210358    0.612971
      3          6           0       -2.912725    1.045252    0.959760
      4          6           0       -3.153035   -0.108789    0.215629
      5          6           0       -4.048890   -0.142153   -0.851901
      6          6           0       -4.728259    1.034604   -1.180914
      7          1           0       -5.040791    3.118393   -0.715653
      8          1           0       -3.430743    3.120779    1.179913
      9          1           0       -2.206193    1.018414    1.780437
     10          1           0       -4.199825   -1.065127   -1.398487
     11          1           0       -5.430877    1.030442   -2.009379
     12          7           0       -2.427917   -1.348402    0.573350
     13          8           0       -2.657378   -2.352093   -0.097909
     14          8           0       -1.643840   -1.292847    1.518216
     15          6           0        4.730309    0.335409   -0.484792
     16          6           0        5.760326    0.775327    0.556132
     17          6           0        6.837056    1.690507   -0.027729
     18          1           0        5.245970   -0.180438   -1.306340
     19          1           0        4.258140    1.225922   -0.922329
     20          1           0        6.229426   -0.115788    0.992565
     21          1           0        5.242131    1.290020    1.375389
     22          1           0        6.387025    2.596452   -0.446458
     23          1           0        7.379929    1.182657   -0.831456
     24          1           0        7.562891    1.992949    0.733555
     25          6           0        3.647401   -0.579926    0.083712
     26          6           0        2.617384   -1.019844   -0.957213
     27          6           0        1.540654   -1.935023   -0.373352
     28          1           0        4.119570   -1.470439    0.521249
     29          1           0        3.131740   -0.064078    0.905258
     30          1           0        3.135578   -1.534536   -1.776470
     31          1           0        2.148284   -0.128728   -1.393646
     32          1           0        0.997781   -1.427174    0.430376
     33          1           0        1.990686   -2.840969    0.045377
     34          1           0        0.814819   -2.237465   -1.134636
 ---------------------------------------------------------------------

 SCF Done:  E(RHF) =  -669.536101029     A.U. after   15 cycles
 E2 =    -0.2091097656D+01 EUMP2 =    -0.67162719868569D+03

 The electronic state is 1-A.
 Alpha  occ. eigenvalues --  -20.60908 -20.60900 -15.85929 -11.31273 -11.27840
 Alpha  occ. eigenvalues --  -11.27834 -11.27579 -11.26851 -11.26841 -11.21242
 Alpha  occ. eigenvalues --  -11.20925 -11.20803 -11.20787 -11.20713 -11.19728
 Alpha  occ. eigenvalues --   -1.59955  -1.39514  -1.19443  -1.08842  -1.07854
 Alpha  occ. eigenvalues --   -1.04843  -1.02875  -0.95683  -0.95289  -0.86296
 Alpha  occ. eigenvalues --   -0.86241  -0.82517  -0.78956  -0.77645  -0.77566
 Alpha  occ. eigenvalues --   -0.72154  -0.71268  -0.70552  -0.65099  -0.64846
 Alpha  occ. eigenvalues --   -0.64496  -0.62191  -0.60279  -0.58715  -0.56904
 Alpha  occ. eigenvalues --   -0.55347  -0.54581  -0.53173  -0.52935  -0.51962
 Alpha  occ. eigenvalues --   -0.51706  -0.49283  -0.48912  -0.48862  -0.47258
 Alpha  occ. eigenvalues --   -0.46040  -0.45231  -0.45144  -0.44737  -0.43129
 Alpha  occ. eigenvalues --   -0.37420  -0.36445
 Alpha virt. eigenvalues --    0.04932   0.11209   0.16401   0.21337   0.23391
 Alpha virt. eigenvalues --    0.25004   0.27189   0.27265   0.28016   0.28176
 Alpha virt. eigenvalues --    0.28827   0.30895   0.32072   0.32294   0.32452

 Mulliken charges:
               1
     1  C   -0.170670
     2  C   -0.218529
     3  C   -0.170970
     4  C    0.158790
     5  C   -0.170843
     6  C   -0.218532
     7  H    0.225913
     8  H    0.223689
     9  H    0.275409
    10  H    0.275830
    11  H    0.223772
    12  N    0.488932
    13  O   -0.458754
    14  O   -0.459401
    15  C   -0.297428
    16  C   -0.299088
    17  C   -0.475266
    18  H    0.148803
    19  H    0.146870
    20  H    0.152231
    21  H    0.150898
    22  H    0.153677
    23  H    0.154868
    24  H    0.159097
    25  C   -0.297327
    26  C   -0.299976
    27  C   -0.481625
    28  H    0.149846
    29  H    0.149262
    30  H    0.148450
    31  H    0.145823
    32  H    0.171178
    33  H    0.154057
    34  H    0.161015
 Sum of Mulliken charges =  -0.00000

 Dipole moment (field-independent basis, Debye):
    X=             -2.8066    Y=              4.3000    Z=             -1.1822  Tot=              5.2692
 Quadrupole moment (field-independent basis, Debye-Ang):
   XX=            -79.2195   YY=            -94.7054   ZZ=            -93.0937
   XY=            -13.6348   XZ=              5.8783   YZ=              3.4522

 Normal termination of Gaussian 16 at Thu May  6 04:39:16 2021.
