 Gaussian 16, Revision A.03,
 Gaussian 16:  EM64L-G16RevA.03 25-Dec-2016

 -------------
 #p 6-31g* mp2
 -------------

 ------------------------------------------------------
 Input file generated by CHIRIPA (05-May-2021 14:51:09)
 ------------------------------------------------------
 Symbolic Z-matrix:
 Charge =  0 Multiplicity = 1

                         Standard orientation:
 ---------------------------------------------------------------------
 Center     Atomic      Atomic             Coordinates (Angstroms)
 Number     Number       Type             X           Y           Z
 ---------------------------------------------------------------------
      1          6           0       -3.102096   -0.175147    0.132796
      2          6           0       -4.263248    0.008008   -0.845041
      3          6           0       -4.993134    1.337828   -0.653626
      4          1           0       -3.483135   -0.109080    1.161091
      5          1           0       -2.392732    0.654745    0.008392
      6          1           0       -4.969516   -0.822723   -0.719790
      7          1           0       -3.879431   -0.058695   -1.871126
      8          1           0       -4.306839    2.178355   -0.798929
      9          1           0       -5.403117    1.409986    0.358949
     10          1           0       -5.819413    1.447992   -1.362842
     11          6           0       -2.362608   -1.499861   -0.046139
     12          6           0       -1.201456   -1.683016    0.931698
     13          6           0       -0.471570   -3.012836    0.740284
     14          1           0       -3.071972   -2.329754    0.078266
     15          1           0       -1.981569   -1.565929   -1.074433
     16          1           0       -1.585273   -1.616314    1.957784
     17          1           0       -0.495188   -0.852285    0.806447
     18          1           0       -0.061587   -3.084994   -0.272291
     19          1           0       -1.157866   -3.853364    0.885587
     20          1           0        0.354709   -3.123000    1.449499
     21          6           0        2.496746    1.556103   -0.150736
     22          6           0        1.363900    1.969705    0.789254
     23          6           0        0.903426    3.409917    0.562209
     24          1           0        3.345799    2.239830   -0.014462
     25          1           0        2.162948    1.675669   -1.190773
     26          1           0        1.699259    1.848081    1.827213
     27          1           0        0.517517    1.284798    0.650864
     28          1           0        0.543029    3.542031   -0.463101
     29          1           0        1.731486    4.108515    0.719932
     30          1           0        0.093112    3.684639    1.244689
     31          6           0        2.967959    0.118905    0.064078
     32          6           0        4.100804   -0.294696   -0.875912
     33          6           0        4.561278   -1.734908   -0.648866
     34          1           0        3.301756   -0.000660    1.104117
     35          1           0        2.118906   -0.564822   -0.072195
     36          1           0        4.947188    0.390210   -0.737522
     37          1           0        3.765445   -0.173073   -1.913870
     38          1           0        3.733219   -2.433507   -0.806588
     39          1           0        4.921675   -1.867023    0.376444
     40          1           0        5.371591   -2.009631   -1.331347
 ---------------------------------------------------------------------

 SCF Done:  E(RHF) =  -470.733219168     A.U. after   11 cycles
 E2 =    -0.1583721543D+01 EUMP2 =    -0.47231694071041D+03

 The electronic state is 1-A.
 Alpha  occ. eigenvalues --  -11.21625 -11.21622 -11.21616 -11.21594 -11.21432
 Alpha  occ. eigenvalues --  -11.21430 -11.21373 -11.21369 -11.21102 -11.21094
 Alpha  occ. eigenvalues --  -11.21081 -11.21070  -1.08481  -1.08433  -1.03559
 Alpha  occ. eigenvalues --   -1.03541  -0.96009  -0.95988  -0.87028  -0.87001
 Alpha  occ. eigenvalues --   -0.79676  -0.79563  -0.78370  -0.78170  -0.65270
 Alpha  occ. eigenvalues --   -0.64929  -0.61000  -0.60907  -0.59388  -0.59343
 Alpha  occ. eigenvalues --   -0.57640  -0.57576  -0.55339  -0.55238  -0.52709
 Alpha  occ. eigenvalues --   -0.52675  -0.52448  -0.52396  -0.49982  -0.49913
 Alpha  occ. eigenvalues --   -0.48075  -0.47852  -0.46897  -0.46551  -0.46096
 Alpha  occ. eigenvalues --   -0.45780  -0.45767  -0.45184  -0.43809  -0.43795
 Alpha virt. eigenvalues --    0.20165   0.22749   0.23669   0.24024   0.25853
 Alpha virt. eigenvalues --    0.26921   0.27088   0.27384   0.27672   0.29564
 Alpha virt. eigenvalues --    0.31343   0.31634   0.31679   0.31969   0.31994

 Mulliken charges:
               1
     1  C   -0.300412
     2  C   -0.299614
     3  C   -0.475787
     4  H    0.149937
     5  H    0.150750
     6  H    0.152140
     7  H    0.151808
     8  H    0.155399
     9  H    0.155244
    10  H    0.160299
    11  C   -0.297540
    12  C   -0.311225
    13  C   -0.475275
    14  H    0.149772
    15  H    0.148884
    16  H    0.152270
    17  H    0.162363
    18  H    0.154068
    19  H    0.155346
    20  H    0.161314
    21  C   -0.297837
    22  C   -0.308914
    23  C   -0.475215
    24  H    0.149955
    25  H    0.148909
    26  H    0.152280
    27  H    0.160026
    28  H    0.154611
    29  H    0.155461
    30  H    0.160695
    31  C   -0.302753
    32  C   -0.299560
    33  C   -0.475892
    34  H    0.149585
    35  H    0.154007
    36  H    0.152092
    37  H    0.151690
    38  H    0.155694
    39  H    0.155190
    40  H    0.160234
 Sum of Mulliken charges =  -0.00000

 Dipole moment (field-independent basis, Debye):
    X=              0.0023    Y=              0.0003    Z=              0.0205  Tot=              0.0206
 Quadrupole moment (field-independent basis, Debye-Ang):
   XX=            -84.4613   YY=            -86.3851   ZZ=            -83.8490
   XY=              1.5302   XZ=              0.0411   YZ=             -0.0500

 Normal termination of Gaussian 16 at Wed May  5 21:22:06 2021.
