 Gaussian 16, Revision A.03,
 Gaussian 16:  EM64L-G16RevA.03 25-Dec-2016

 -------------
 #p 6-31g* mp2
 -------------

 ------------------------------------------------------
 Input file generated by CHIRIPA (05-May-2021 14:51:14)
 ------------------------------------------------------
 Symbolic Z-matrix:
 Charge =  0 Multiplicity = 1

                         Standard orientation:
 ---------------------------------------------------------------------
 Center     Atomic      Atomic             Coordinates (Angstroms)
 Number     Number       Type             X           Y           Z
 ---------------------------------------------------------------------
      1          6           0        2.683025   -0.075015   -0.317854
      2          6           0        3.967439   -0.346223   -1.101890
      3          6           0        4.059982   -1.787193   -1.604716
      4          1           0        2.628155   -0.766415    0.534143
      5          1           0        1.817522   -0.297538   -0.957215
      6          1           0        4.830262   -0.121933   -0.461697
      7          1           0        4.019352    0.346032   -1.952011
      8          1           0        3.218028   -2.019712   -2.264753
      9          1           0        4.033545   -2.490336   -0.765972
     10          1           0        4.985843   -1.959090   -2.162472
     11          6           0        2.575965    1.361274    0.191400
     12          6           0        1.291552    1.632482    0.975436
     13          6           0        1.199009    3.073452    1.478262
     14          1           0        3.441469    1.583797    0.830761
     15          1           0        2.630836    2.052674   -0.660598
     16          1           0        1.239638    0.940227    1.825557
     17          1           0        0.428729    1.408192    0.335243
     18          1           0        1.225446    3.776596    0.639518
     19          1           0        2.040963    3.305972    2.138299
     20          1           0        0.273147    3.245349    2.036018
     21          6           0       -2.721820   -0.116613   -0.482380
     22          6           0       -4.185713    0.247596   -0.732088
     23          6           0       -4.354161    1.302118   -1.826347
     24          1           0       -2.166553    0.790709   -0.207807
     25          1           0       -2.277798   -0.483656   -1.418072
     26          1           0       -4.627222    0.612540    0.204130
     27          1           0       -4.737600   -0.660730   -1.005912
     28          1           0       -3.939582    0.943504   -2.774039
     29          1           0       -3.828577    2.224009   -1.557124
     30          1           0       -5.408353    1.547583   -1.988476
     31          6           0       -2.537170   -1.169647    0.608835
     32          6           0       -1.073277   -1.533855    0.858542
     33          6           0       -0.904830   -2.588377    1.952801
     34          1           0       -2.981193   -0.802604    1.544526
     35          1           0       -3.092438   -2.076969    0.334262
     36          1           0       -0.521391   -0.625529    1.132366
     37          1           0       -0.631769   -1.898799   -0.077675
     38          1           0       -1.430414   -3.510268    1.683578
     39          1           0       -1.319408   -2.229763    2.900494
     40          1           0        0.149362   -2.833842    2.114930
 ---------------------------------------------------------------------

 SCF Done:  E(RHF) =  -470.732285656     A.U. after   11 cycles
 E2 =    -0.1584512371D+01 EUMP2 =    -0.47231679802754D+03

 The electronic state is 1-A.
 Alpha  occ. eigenvalues --  -11.21634 -11.21603 -11.21602 -11.21419 -11.21398
 Alpha  occ. eigenvalues --  -11.21378 -11.21347 -11.21292 -11.21123 -11.21080
 Alpha  occ. eigenvalues --  -11.21078 -11.20997  -1.08479  -1.08364  -1.03575
 Alpha  occ. eigenvalues --   -1.03466  -0.96005  -0.95940  -0.87028  -0.86953
 Alpha  occ. eigenvalues --   -0.79749  -0.79497  -0.78477  -0.77961  -0.65098
 Alpha  occ. eigenvalues --   -0.65015  -0.60963  -0.60896  -0.59421  -0.59263
 Alpha  occ. eigenvalues --   -0.57647  -0.57524  -0.55295  -0.55230  -0.52727
 Alpha  occ. eigenvalues --   -0.52620  -0.52445  -0.52357  -0.49950  -0.49893
 Alpha  occ. eigenvalues --   -0.48224  -0.47801  -0.46719  -0.46581  -0.46209
 Alpha  occ. eigenvalues --   -0.45752  -0.45617  -0.44985  -0.43804  -0.43723
 Alpha virt. eigenvalues --    0.21433   0.23006   0.23698   0.23994   0.24970
 Alpha virt. eigenvalues --    0.26197   0.26562   0.27913   0.28564   0.29709
 Alpha virt. eigenvalues --    0.30501   0.31202   0.31805   0.31874   0.32063

 Mulliken charges:
               1
     1  C   -0.299929
     2  C   -0.299765
     3  C   -0.475572
     4  H    0.150033
     5  H    0.152042
     6  H    0.151813
     7  H    0.151889
     8  H    0.154992
     9  H    0.155142
    10  H    0.160275
    11  C   -0.297603
    12  C   -0.308831
    13  C   -0.474669
    14  H    0.149416
    15  H    0.149648
    16  H    0.153296
    17  H    0.158913
    18  H    0.155359
    19  H    0.155450
    20  H    0.159609
    21  C   -0.302026
    22  C   -0.299389
    23  C   -0.475744
    24  H    0.152246
    25  H    0.148818
    26  H    0.151992
    27  H    0.152196
    28  H    0.154995
    29  H    0.155003
    30  H    0.160343
    31  C   -0.297626
    32  C   -0.310236
    33  C   -0.475598
    34  H    0.148798
    35  H    0.149080
    36  H    0.165932
    37  H    0.151363
    38  H    0.154709
    39  H    0.154324
    40  H    0.159308
 Sum of Mulliken charges =  -0.00000

 Dipole moment (field-independent basis, Debye):
    X=              0.0365    Y=              0.0393    Z=             -0.0050  Tot=              0.0539
 Quadrupole moment (field-independent basis, Debye-Ang):
   XX=            -84.7732   YY=            -85.8757   ZZ=            -84.3467
   XY=              0.3076   XZ=              0.3461   YZ=              0.4818

 Normal termination of Gaussian 16 at Thu May  6 04:01:40 2021.
