 Gaussian 16, Revision A.03,
 Gaussian 16:  EM64L-G16RevA.03 25-Dec-2016

 -------------
 #p 6-31g* mp2
 -------------

 ------------------------------------------------------
 Input file generated by CHIRIPA (05-May-2021 14:51:11)
 ------------------------------------------------------
 Symbolic Z-matrix:
 Charge =  0 Multiplicity = 1

                         Standard orientation:
 ---------------------------------------------------------------------
 Center     Atomic      Atomic             Coordinates (Angstroms)
 Number     Number       Type             X           Y           Z
 ---------------------------------------------------------------------
      1          6           0       -3.837223    0.913012   -0.243880
      2          6           0       -2.913889    1.834743    0.553524
      3          6           0       -2.808804    3.234509   -0.052614
      4          1           0       -3.469498    0.840294   -1.276563
      5          1           0       -4.836960    1.365625   -0.299222
      6          1           0       -1.916553    1.379867    0.608524
      7          1           0       -3.283747    1.905123    1.584479
      8          1           0       -3.793240    3.711883   -0.092634
      9          1           0       -2.418278    3.183643   -1.074134
     10          1           0       -2.143865    3.876794    0.533208
     11          6           0       -3.952534   -0.489906    0.349629
     12          6           0       -4.875868   -1.411636   -0.447775
     13          6           0       -4.980953   -2.811403    0.158364
     14          1           0       -2.952797   -0.942519    0.404971
     15          1           0       -4.320259   -0.417187    1.382313
     16          1           0       -4.506010   -1.482016   -1.478730
     17          1           0       -5.873204   -0.956760   -0.502775
     18          1           0       -5.371479   -2.760536    1.179884
     19          1           0       -3.996517   -3.288777    0.198383
     20          1           0       -5.645892   -3.453687   -0.427458
     21          6           0        3.214350   -0.530561    0.083315
     22          6           0        2.039525    0.309301   -0.419083
     23          6           0        0.684826   -0.342086   -0.139303
     24          1           0        3.177511   -1.521271   -0.390055
     25          1           0        3.102183   -0.696040    1.163792
     26          1           0        2.154602    0.474314   -1.498038
     27          1           0        2.079276    1.298194    0.055393
     28          1           0        0.544171   -0.491943    0.936039
     29          1           0        0.619925   -1.320504   -0.626219
     30          1           0       -0.140951    0.275143   -0.506700
     31          6           0        4.575407    0.107454   -0.189065
     32          6           0        5.750232   -0.732408    0.313334
     33          6           0        7.104932   -0.081021    0.033553
     34          1           0        4.687574    0.272934   -1.269541
     35          1           0        4.612246    1.098166    0.284306
     36          1           0        5.710481   -1.721301   -0.161143
     37          1           0        5.635155   -0.897421    1.392288
     38          1           0        7.169832    0.897397    0.520469
     39          1           0        7.245587    0.068836   -1.041789
     40          1           0        7.930709   -0.698250    0.400950
 ---------------------------------------------------------------------

 SCF Done:  E(RHF) =  -470.733230012     A.U. after   11 cycles
 E2 =    -0.1582690267D+01 EUMP2 =    -0.47231592027912D+03

 The electronic state is 1-A.
 Alpha  occ. eigenvalues --  -11.21667 -11.21626 -11.21553 -11.21511 -11.21444
 Alpha  occ. eigenvalues --  -11.21383 -11.21348 -11.21285 -11.21157 -11.21090
 Alpha  occ. eigenvalues --  -11.21042 -11.21030  -1.08474  -1.08376  -1.03584
 Alpha  occ. eigenvalues --   -1.03478  -0.96034  -0.95933  -0.87060  -0.86944
 Alpha  occ. eigenvalues --   -0.79663  -0.79528  -0.78286  -0.78182  -0.65107
 Alpha  occ. eigenvalues --   -0.65024  -0.61005  -0.60899  -0.59421  -0.59262
 Alpha  occ. eigenvalues --   -0.57646  -0.57533  -0.55322  -0.55217  -0.52781
 Alpha  occ. eigenvalues --   -0.52608  -0.52465  -0.52347  -0.49988  -0.49859
 Alpha  occ. eigenvalues --   -0.47997  -0.47826  -0.46698  -0.46540  -0.45831
 Alpha  occ. eigenvalues --   -0.45759  -0.45722  -0.45641  -0.43784  -0.43720
 Alpha virt. eigenvalues --    0.21062   0.22974   0.23911   0.24826   0.25986
 Alpha virt. eigenvalues --    0.26618   0.27133   0.27535   0.27963   0.29107
 Alpha virt. eigenvalues --    0.30870   0.31321   0.31746   0.31886   0.31942

 Mulliken charges:
               1
     1  C   -0.297902
     2  C   -0.307198
     3  C   -0.475518
     4  H    0.148990
     5  H    0.149379
     6  H    0.159347
     7  H    0.151724
     8  H    0.155211
     9  H    0.154562
    10  H    0.159958
    11  C   -0.300282
    12  C   -0.299517
    13  C   -0.475708
    14  H    0.152433
    15  H    0.149329
    16  H    0.151828
    17  H    0.151686
    18  H    0.155036
    19  H    0.155367
    20  H    0.160004
    21  C   -0.298612
    22  C   -0.299878
    23  C   -0.481311
    24  H    0.149731
    25  H    0.149747
    26  H    0.152073
    27  H    0.152549
    28  H    0.155937
    29  H    0.155232
    30  H    0.165375
    31  C   -0.298328
    32  C   -0.299686
    33  C   -0.475733
    34  H    0.149591
    35  H    0.149796
    36  H    0.151972
    37  H    0.152010
    38  H    0.155244
    39  H    0.155215
    40  H    0.160344
 Sum of Mulliken charges =  -0.00000

 Dipole moment (field-independent basis, Debye):
    X=              0.0480    Y=             -0.0146    Z=              0.0057  Tot=              0.0505
 Quadrupole moment (field-independent basis, Debye-Ang):
   XX=            -85.4020   YY=            -85.7663   ZZ=            -83.7566
   XY=             -0.7673   XZ=             -0.3173   YZ=              1.0038

 Normal termination of Gaussian 16 at Wed May  5 18:17:11 2021.
