 Gaussian 16, Revision A.03,
 Gaussian 16:  EM64L-G16RevA.03 25-Dec-2016

 -------------
 #p 6-31g* mp2
 -------------

 ------------------------------------------------------
 Input file generated by CHIRIPA (05-May-2021 14:55:22)
 ------------------------------------------------------
 Symbolic Z-matrix:
 Charge =  0 Multiplicity = 1

                         Standard orientation:
 ---------------------------------------------------------------------
 Center     Atomic      Atomic             Coordinates (Angstroms)
 Number     Number       Type             X           Y           Z
 ---------------------------------------------------------------------
      1          6           0        5.118050    1.812138   -0.362861
      2          6           0        4.882397    1.370856    0.943378
      3          6           0        3.923773    0.385555    1.197875
      4          6           0        3.215871   -0.139052    0.117620
      5          6           0        3.427779    0.279851   -1.194975
      6          6           0        4.391270    1.266190   -1.425994
      7          1           0        5.864622    2.577947   -0.551441
      8          1           0        5.445325    1.793059    1.770966
      9          1           0        3.721152    0.025614    2.199277
     10          1           0        2.850830   -0.159865   -1.999462
     11          1           0        4.572165    1.606975   -2.441468
     12          7           0        2.198443   -1.182696    0.374617
     13          8           0        1.588115   -1.628967   -0.594393
     14          8           0        2.030575   -1.534671    1.540194
     15          6           0       -3.593960   -0.196128   -0.225090
     16          6           0       -3.291632   -1.693014   -0.301994
     17          6           0       -1.813129   -1.984996   -0.560006
     18          1           0       -3.282395    0.283072   -1.163300
     19          1           0       -2.985939    0.253159    0.572309
     20          1           0       -3.901065   -2.139597   -1.098092
     21          1           0       -3.604130   -2.168738    0.636434
     22          1           0       -1.192616   -1.566106    0.238802
     23          1           0       -1.491239   -1.536799   -1.505578
     24          1           0       -1.619385   -3.060959   -0.611251
     25          6           0       -5.067941    0.111768    0.032415
     26          6           0       -5.370270    1.608655    0.109320
     27          6           0       -6.848773    1.900637    0.367333
     28          1           0       -5.675963   -0.337518   -0.764983
     29          1           0       -5.379507   -0.367431    0.970626
     30          1           0       -5.057772    2.084379   -0.829108
     31          1           0       -4.760837    2.055237    0.905418
     32          1           0       -7.170663    1.452439    1.312904
     33          1           0       -7.469286    1.481746   -0.431476
     34          1           0       -7.042517    2.976599    0.418576
 ---------------------------------------------------------------------

 SCF Done:  E(RHF) =  -669.535690451     A.U. after   15 cycles
 E2 =    -0.2091242186D+01 EUMP2 =    -0.67162693263696D+03

 The electronic state is 1-A.
 Alpha  occ. eigenvalues --  -20.60902 -20.60875 -15.85914 -11.31266 -11.27831
 Alpha  occ. eigenvalues --  -11.27827 -11.27572 -11.26842 -11.26832 -11.21100
 Alpha  occ. eigenvalues --  -11.20714 -11.20666 -11.20511 -11.20372 -11.19293
 Alpha  occ. eigenvalues --   -1.59950  -1.39504  -1.19435  -1.08835  -1.07621
 Alpha  occ. eigenvalues --   -1.04834  -1.02606  -0.95676  -0.95011  -0.86235
 Alpha  occ. eigenvalues --   -0.86016  -0.82504  -0.78703  -0.77557  -0.77387
 Alpha  occ. eigenvalues --   -0.72124  -0.71269  -0.70543  -0.65088  -0.64838
 Alpha  occ. eigenvalues --   -0.64265  -0.62181  -0.60010  -0.58482  -0.56628
 Alpha  occ. eigenvalues --   -0.55340  -0.54307  -0.53167  -0.52927  -0.51686
 Alpha  occ. eigenvalues --   -0.51456  -0.49108  -0.48893  -0.48746  -0.46977
 Alpha  occ. eigenvalues --   -0.45764  -0.45059  -0.44847  -0.44698  -0.42855
 Alpha  occ. eigenvalues --   -0.37414  -0.36436
 Alpha virt. eigenvalues --    0.04956   0.11218   0.16448   0.21351   0.23595
 Alpha virt. eigenvalues --    0.25257   0.27263   0.27404   0.28145   0.28269
 Alpha virt. eigenvalues --    0.29065   0.30925   0.32242   0.32453   0.32579

 Mulliken charges:
               1
     1  C   -0.170650
     2  C   -0.218572
     3  C   -0.170844
     4  C    0.158657
     5  C   -0.170756
     6  C   -0.218548
     7  H    0.225878
     8  H    0.223691
     9  H    0.275719
    10  H    0.275815
    11  H    0.223722
    12  N    0.487990
    13  O   -0.456890
    14  O   -0.460774
    15  C   -0.296863
    16  C   -0.302637
    17  C   -0.466080
    18  H    0.146395
    19  H    0.148636
    20  H    0.146184
    21  H    0.149278
    22  H    0.165568
    23  H    0.150501
    24  H    0.160306
    25  C   -0.297268
    26  C   -0.298832
    27  C   -0.475185
    28  H    0.148039
    29  H    0.149080
    30  H    0.150150
    31  H    0.150865
    32  H    0.154869
    33  H    0.154478
    34  H    0.158076
 Sum of Mulliken charges =  -0.00000

 Dipole moment (field-independent basis, Debye):
    X=              3.9239    Y=              3.6070    Z=             -0.8896  Tot=              5.4036
 Quadrupole moment (field-independent basis, Debye-Ang):
   XX=            -74.4889   YY=            -96.7201   ZZ=            -89.2599
   XY=             12.1509   XZ=             -1.1598   YZ=              0.6605

 Normal termination of Gaussian 16 at Thu May  6 10:56:57 2021.
