 Gaussian 16, Revision A.03,
 Gaussian 16:  EM64L-G16RevA.03 25-Dec-2016

 -------------
 #p 6-31g* mp2
 -------------

 ------------------------------------------------------
 Input file generated by CHIRIPA (05-May-2021 14:51:09)
 ------------------------------------------------------
 Symbolic Z-matrix:
 Charge =  0 Multiplicity = 1

                         Standard orientation:
 ---------------------------------------------------------------------
 Center     Atomic      Atomic             Coordinates (Angstroms)
 Number     Number       Type             X           Y           Z
 ---------------------------------------------------------------------
      1          6           0       -3.936202   -0.412478   -0.061606
      2          6           0       -3.141051   -1.633232   -0.525805
      3          6           0       -3.900785   -2.944844   -0.325127
      4          1           0       -4.191480   -0.531229    1.000315
      5          1           0       -4.887933   -0.373525   -0.609407
      6          1           0       -2.190498   -1.669097    0.021715
      7          1           0       -2.887472   -1.511472   -1.586695
      8          1           0       -4.841656   -2.934572   -0.884822
      9          1           0       -4.140721   -3.093093    0.732727
     10          1           0       -3.314040   -3.804499   -0.663628
     11          6           0       -3.189908    0.906263   -0.255761
     12          6           0       -3.985059    2.127017    0.208437
     13          6           0       -3.225325    3.438630    0.007759
     14          1           0       -2.238177    0.867310    0.292040
     15          1           0       -2.934630    1.025014   -1.317682
     16          1           0       -4.238639    2.005257    1.269327
     17          1           0       -4.935613    2.162882   -0.339083
     18          1           0       -2.985389    3.586878   -1.050094
     19          1           0       -2.284455    3.428358    0.567454
     20          1           0       -3.812070    4.298284    0.346261
     21          6           0        4.091196    0.304756    0.172232
     22          6           0        5.398062   -0.089916   -0.516476
     23          6           0        6.444763    1.024068   -0.481132
     24          1           0        3.687047    1.205030   -0.310587
     25          1           0        4.302492    0.577655    1.215437
     26          1           0        5.184165   -0.363317   -1.557685
     27          1           0        5.799048   -0.989466   -0.032084
     28          1           0        6.687111    1.292320    0.552265
     29          1           0        6.068735    1.922027   -0.982003
     30          1           0        7.370994    0.720603   -0.978994
     31          6           0        3.034915   -0.798541    0.145136
     32          6           0        1.728048   -0.403869    0.833844
     33          6           0        0.681347   -1.517854    0.798500
     34          1           0        2.823619   -1.071440   -0.898069
     35          1           0        3.439064   -1.698815    0.627955
     36          1           0        1.327062    0.495681    0.349452
     37          1           0        1.941945   -0.130468    1.875052
     38          1           0        1.057375   -2.415812    1.299371
     39          1           0        0.438999   -1.786107   -0.234897
     40          1           0       -0.244883   -1.214388    1.296362
 ---------------------------------------------------------------------

 SCF Done:  E(RHF) =  -470.732817671     A.U. after   11 cycles
 E2 =    -0.1583041709D+01 EUMP2 =    -0.47231585938003D+03

 The electronic state is 1-A.
 Alpha  occ. eigenvalues --  -11.21646 -11.21616 -11.21585 -11.21435 -11.21431
 Alpha  occ. eigenvalues --  -11.21370 -11.21367 -11.21297 -11.21123 -11.21081
 Alpha  occ. eigenvalues --  -11.21064 -11.20986  -1.08461  -1.08378  -1.03573
 Alpha  occ. eigenvalues --   -1.03466  -0.96022  -0.95929  -0.87059  -0.86932
 Alpha  occ. eigenvalues --   -0.79695  -0.79482  -0.78276  -0.78184  -0.65113
 Alpha  occ. eigenvalues --   -0.65006  -0.61004  -0.60859  -0.59435  -0.59249
 Alpha  occ. eigenvalues --   -0.57633  -0.57536  -0.55309  -0.55218  -0.52798
 Alpha  occ. eigenvalues --   -0.52595  -0.52440  -0.52345  -0.50008  -0.49838
 Alpha  occ. eigenvalues --   -0.47948  -0.47850  -0.46734  -0.46489  -0.45833
 Alpha  occ. eigenvalues --   -0.45748  -0.45706  -0.45612  -0.43769  -0.43699
 Alpha virt. eigenvalues --    0.21230   0.23075   0.24026   0.24323   0.26171
 Alpha virt. eigenvalues --    0.26602   0.27122   0.27387   0.27919   0.29387
 Alpha virt. eigenvalues --    0.30825   0.31054   0.31703   0.31808   0.32290

 Mulliken charges:
               1
     1  C   -0.297697
     2  C   -0.309645
     3  C   -0.474967
     4  H    0.148861
     5  H    0.149193
     6  H    0.164442
     7  H    0.150374
     8  H    0.154538
     9  H    0.154583
    10  H    0.159963
    11  C   -0.299985
    12  C   -0.299518
    13  C   -0.475710
    14  H    0.150492
    15  H    0.149404
    16  H    0.151850
    17  H    0.152040
    18  H    0.155000
    19  H    0.155101
    20  H    0.160235
    21  C   -0.298389
    22  C   -0.299674
    23  C   -0.475728
    24  H    0.149863
    25  H    0.149525
    26  H    0.152001
    27  H    0.151946
    28  H    0.155188
    29  H    0.155262
    30  H    0.160308
    31  C   -0.298761
    32  C   -0.300120
    33  C   -0.479873
    34  H    0.149910
    35  H    0.149735
    36  H    0.152784
    37  H    0.151800
    38  H    0.155459
    39  H    0.158093
    40  H    0.162115
 Sum of Mulliken charges =  -0.00000

 Dipole moment (field-independent basis, Debye):
    X=              0.0604    Y=             -0.0090    Z=              0.0080  Tot=              0.0615
 Quadrupole moment (field-independent basis, Debye-Ang):
   XX=            -85.6414   YY=            -86.2481   ZZ=            -83.1275
   XY=             -1.2800   XZ=              0.7387   YZ=             -0.3223

 Normal termination of Gaussian 16 at Wed May  5 16:37:14 2021.
