 Gaussian 16, Revision A.03,
 Gaussian 16:  EM64L-G16RevA.03 25-Dec-2016

 -------------
 #p 6-31g* mp2
 -------------

 ------------------------------------------------------
 Input file generated by CHIRIPA (05-May-2021 14:53:14)
 ------------------------------------------------------
 Symbolic Z-matrix:
 Charge =  0 Multiplicity = 1

                         Standard orientation:
 ---------------------------------------------------------------------
 Center     Atomic      Atomic             Coordinates (Angstroms)
 Number     Number       Type             X           Y           Z
 ---------------------------------------------------------------------
      1          6           0       -2.979048   -0.274109   -0.458494
      2          6           0       -2.001440   -1.449013   -0.501712
      3          6           0       -0.609577   -1.042380   -0.986645
      4          1           0       -3.053534    0.169719   -1.460698
      5          1           0       -2.574016    0.506841    0.199884
      6          1           0       -2.408849   -2.228097   -1.158722
      7          1           0       -1.929419   -1.890215    0.500670
      8          1           0       -0.178831   -0.281920   -0.327282
      9          1           0       -0.660985   -0.621722   -1.996103
     10          1           0        0.073184   -1.897460   -1.009798
     11          6           0       -4.374758   -0.664785    0.024302
     12          6           0       -5.352366    0.510119    0.067520
     13          6           0       -6.744229    0.103486    0.552454
     14          1           0       -4.779790   -1.445735   -0.634075
     15          1           0       -4.300272   -1.108612    1.026507
     16          1           0       -5.424388    0.951321   -0.934862
     17          1           0       -4.944958    1.289203    0.724530
     18          1           0       -6.692821   -0.317172    1.561911
     19          1           0       -7.174975   -0.656974   -0.106909
     20          1           0       -7.426990    0.958566    0.575607
     21          6           0        1.252126    2.299025    0.089696
     22          6           0        2.085651    2.038820   -1.003031
     23          6           0        2.987325    0.970912   -0.969801
     24          6           0        3.029240    0.179951    0.177332
     25          6           0        2.211821    0.413681    1.282087
     26          6           0        1.317755    1.487056    1.226762
     27          1           0        0.554639    3.130725    0.055300
     28          1           0        2.036854    2.667739   -1.887409
     29          1           0        3.644120    0.746954   -1.801595
     30          1           0        2.283340   -0.230822    2.149797
     31          1           0        0.671635    1.686774    2.076871
     32          7           0        3.979775   -0.953490    0.224206
     33          8           0        3.997388   -1.635499    1.246552
     34          8           0        4.689191   -1.138410   -0.762288
 ---------------------------------------------------------------------

 SCF Done:  E(RHF) =  -669.534424372     A.U. after   15 cycles
 E2 =    -0.2093522067D+01 EUMP2 =    -0.67162794643868D+03

 The electronic state is 1-A.
 Alpha  occ. eigenvalues --  -20.60800 -20.60794 -15.85854 -11.31243 -11.27832
 Alpha  occ. eigenvalues --  -11.27808 -11.27558 -11.26832 -11.26816 -11.21945
 Alpha  occ. eigenvalues --  -11.21748 -11.21697 -11.21650 -11.21359 -11.20920
 Alpha  occ. eigenvalues --   -1.59874  -1.39427  -1.19436  -1.08822  -1.08693
 Alpha  occ. eigenvalues --   -1.04841  -1.03729  -0.96172  -0.95644  -0.87191
 Alpha  occ. eigenvalues --   -0.86229  -0.82476  -0.79806  -0.78525  -0.77518
 Alpha  occ. eigenvalues --   -0.72072  -0.71196  -0.70529  -0.65340  -0.65078
 Alpha  occ. eigenvalues --   -0.64834  -0.62179  -0.61163  -0.59548  -0.57816
 Alpha  occ. eigenvalues --   -0.55621  -0.55328  -0.53512  -0.52922  -0.52817
 Alpha  occ. eigenvalues --   -0.52277  -0.50014  -0.48833  -0.48825  -0.48064
 Alpha  occ. eigenvalues --   -0.46816  -0.46039  -0.45987  -0.44826  -0.44005
 Alpha  occ. eigenvalues --   -0.37381  -0.36398
 Alpha virt. eigenvalues --    0.05009   0.11161   0.16483   0.21238   0.22652
 Alpha virt. eigenvalues --    0.24197   0.26269   0.27051   0.27473   0.27848
 Alpha virt. eigenvalues --    0.28344   0.30883   0.31343   0.31674   0.31955

 Mulliken charges:
               1
     1  C   -0.296399
     2  C   -0.299305
     3  C   -0.484448
     4  H    0.148765
     5  H    0.142087
     6  H    0.152922
     7  H    0.150939
     8  H    0.165106
     9  H    0.150965
    10  H    0.161973
    11  C   -0.298229
    12  C   -0.299230
    13  C   -0.475747
    14  H    0.151395
    15  H    0.149781
    16  H    0.151685
    17  H    0.148875
    18  H    0.155535
    19  H    0.156422
    20  H    0.160248
    21  C   -0.169250
    22  C   -0.215932
    23  C   -0.169959
    24  C    0.162479
    25  C   -0.170007
    26  C   -0.224053
    27  H    0.226393
    28  H    0.223950
    29  H    0.276120
    30  H    0.275911
    31  H    0.223764
    32  N    0.487830
    33  O   -0.460377
    34  O   -0.460210
 Sum of Mulliken charges =  -0.00000

 Dipole moment (field-independent basis, Debye):
    X=             -3.2482    Y=              4.0161    Z=             -0.1712  Tot=              5.1681
 Quadrupole moment (field-independent basis, Debye-Ang):
   XX=           -116.2446   YY=            -93.6700   ZZ=            -89.8997
   XY=             12.0139   XZ=             -2.2247   YZ=             -0.3783

 Normal termination of Gaussian 16 at Wed May  5 23:26:47 2021.
