 Gaussian 16, Revision A.03,
 Gaussian 16:  EM64L-G16RevA.03 25-Dec-2016

 -------------
 #p 6-31g* mp2
 -------------

 ------------------------------------------------------
 Input file generated by CHIRIPA (05-May-2021 14:57:23)
 ------------------------------------------------------
 Symbolic Z-matrix:
 Charge =  0 Multiplicity = 1

                         Standard orientation:
 ---------------------------------------------------------------------
 Center     Atomic      Atomic             Coordinates (Angstroms)
 Number     Number       Type             X           Y           Z
 ---------------------------------------------------------------------
      1          6           0        5.583250   -1.642564    0.323092
      2          6           0        5.920115   -0.467817   -0.357359
      3          6           0        4.946632    0.496959   -0.633199
      4          6           0        3.640233    0.253342   -0.212176
      5          6           0        3.273391   -0.907052    0.467679
      6          6           0        4.263291   -1.858052    0.732717
      7          1           0        6.345851   -2.386674    0.533176
      8          1           0        6.944407   -0.297792   -0.676673
      9          1           0        5.179878    1.415263   -1.158301
     10          1           0        2.243839   -1.048356    0.773412
     11          1           0        3.998791   -2.769447    1.261341
     12          7           0        2.600961    1.267415   -0.498478
     13          8           0        1.457186    1.028993   -0.116939
     14          8           0        2.949832    2.281467   -1.098999
     15          6           0       -1.815772    0.844772    1.396329
     16          6           0       -2.977653    1.612397    1.264781
     17          6           0       -4.089492    1.106719    0.584596
     18          6           0       -4.004459   -0.176215    0.045949
     19          6           0       -2.861072   -0.965443    0.160286
     20          6           0       -1.761285   -0.439435    0.844634
     21          1           0       -0.956749    1.245492    1.926329
     22          1           0       -3.022812    2.610047    1.692214
     23          1           0       -5.001533    1.679435    0.467996
     24          1           0       -2.846021   -1.956592   -0.276540
     25          1           0       -0.860269   -1.037841    0.945249
     26          7           0       -5.175133   -0.722316   -0.676335
     27          8           0       -5.074919   -1.855417   -1.141817
     28          8           0       -6.170755   -0.006906   -0.763304
 ---------------------------------------------------------------------

 SCF Done:  E(RHF) =  -868.338740571     A.U. after   16 cycles
 E2 =    -0.2599410529D+01 EUMP2 =    -0.87093815109940D+03

 The electronic state is 1-A.
 Alpha  occ. eigenvalues --  -20.61728 -20.61665 -20.60113 -20.60106 -15.86738
 Alpha  occ. eigenvalues --  -15.85163 -11.31971 -11.30330 -11.28594 -11.28469
 Alpha  occ. eigenvalues --  -11.28190 -11.27509 -11.27450 -11.26923 -11.26906
 Alpha  occ. eigenvalues --  -11.26489 -11.25859 -11.25815  -1.60759  -1.59193
 Alpha  occ. eigenvalues --   -1.40324  -1.38753  -1.20118  -1.18483  -1.09527
 Alpha  occ. eigenvalues --   -1.07879  -1.05505  -1.03883  -0.96394  -0.94753
 Alpha  occ. eigenvalues --   -0.86908  -0.85275  -0.83236  -0.81617  -0.78317
 Alpha  occ. eigenvalues --   -0.76718  -0.72978  -0.72069  -0.71386  -0.71225
 Alpha  occ. eigenvalues --   -0.70514  -0.69516  -0.65775  -0.65503  -0.64131
 Alpha  occ. eigenvalues --   -0.63894  -0.62867  -0.61262  -0.55986  -0.54287
 Alpha  occ. eigenvalues --   -0.53829  -0.53597  -0.52178  -0.51990  -0.49731
 Alpha  occ. eigenvalues --   -0.49685  -0.48151  -0.48125  -0.45755  -0.44204
 Alpha  occ. eigenvalues --   -0.38068  -0.37099  -0.36354  -0.35486
 Alpha virt. eigenvalues --    0.04214   0.05850   0.10559   0.12176   0.15740
 Alpha virt. eigenvalues --    0.17417   0.19443   0.22025   0.25162   0.27050
 Alpha virt. eigenvalues --    0.28722   0.29174   0.30586   0.31059   0.32688

 Mulliken charges:
               1
     1  C   -0.169890
     2  C   -0.218147
     3  C   -0.169899
     4  C    0.158444
     5  C   -0.170752
     6  C   -0.218510
     7  H    0.228433
     8  H    0.226283
     9  H    0.277500
    10  H    0.268270
    11  H    0.224838
    12  N    0.491609
    13  O   -0.472013
    14  O   -0.454711
    15  C   -0.158936
    16  C   -0.220104
    17  C   -0.171271
    18  C    0.157412
    19  C   -0.173038
    20  C   -0.211500
    21  H    0.231443
    22  H    0.221928
    23  H    0.272954
    24  H    0.271027
    25  H    0.216440
    26  N    0.488385
    27  O   -0.463686
    28  O   -0.462508
 Sum of Mulliken charges =  -0.00000

 Dipole moment (field-independent basis, Debye):
    X=              8.3201    Y=             -1.4994    Z=              3.5398  Tot=              9.1653
 Quadrupole moment (field-independent basis, Debye-Ang):
   XX=           -108.1381   YY=           -102.6055   ZZ=           -105.3175
   XY=            -21.3017   XZ=             -9.6511   YZ=             -0.0503

 Normal termination of Gaussian 16 at Fri May  7 04:55:51 2021.
