 Gaussian 16, Revision A.03,
 Gaussian 16:  EM64L-G16RevA.03 25-Dec-2016

 -------------
 #p 6-31g* mp2
 -------------

 ------------------------------------------------------
 Input file generated by CHIRIPA (05-May-2021 14:53:14)
 ------------------------------------------------------
 Symbolic Z-matrix:
 Charge =  0 Multiplicity = 1

                         Standard orientation:
 ---------------------------------------------------------------------
 Center     Atomic      Atomic             Coordinates (Angstroms)
 Number     Number       Type             X           Y           Z
 ---------------------------------------------------------------------
      1          6           0       -3.380320    0.065037    0.230678
      2          6           0       -4.777051   -0.401545   -0.180939
      3          6           0       -5.213859   -1.673278    0.546857
      4          1           0       -2.658661   -0.739114    0.031947
      5          1           0       -3.364172    0.238432    1.315606
      6          1           0       -4.790941   -0.572680   -1.264976
      7          1           0       -5.495440    0.403881    0.018617
      8          1           0       -5.228272   -1.511851    1.629601
      9          1           0       -4.519771   -2.493960    0.338715
     10          1           0       -6.215102   -1.989053    0.237568
     11          6           0       -2.929557    1.335296   -0.488337
     12          6           0       -1.532826    1.801879   -0.076720
     13          6           0       -1.096018    3.073612   -0.804516
     14          1           0       -2.945705    1.161901   -1.573265
     15          1           0       -3.651216    2.139447   -0.289606
     16          1           0       -0.814437    0.996453   -0.276276
     17          1           0       -1.518936    1.973014    1.007317
     18          1           0       -1.790106    3.894294   -0.596374
     19          1           0       -1.081605    2.912185   -1.887260
     20          1           0       -0.094775    3.389387   -0.495227
     21          6           0        3.964652    1.450359    0.456862
     22          6           0        2.691208    1.419315    1.034702
     23          6           0        1.851665    0.317788    0.844035
     24          6           0        2.319795   -0.740103    0.066211
     25          6           0        3.583306   -0.738783   -0.522712
     26          6           0        4.405858    0.373110   -0.318633
     27          1           0        4.610229    2.310079    0.610186
     28          1           0        2.345921    2.254496    1.637440
     29          1           0        0.861173    0.267627    1.279727
     30          1           0        3.899686   -1.586339   -1.118504
     31          1           0        5.394345    0.394482   -0.768613
     32          7           0        1.440002   -1.911728   -0.142739
     33          8           0        1.875912   -2.831062   -0.832264
     34          8           0        0.331170   -1.888528    0.386967
 ---------------------------------------------------------------------

 SCF Done:  E(RHF) =  -669.535787895     A.U. after   15 cycles
 E2 =    -0.2092943878D+01 EUMP2 =    -0.67162873177309D+03

 The electronic state is 1-A.
 Alpha  occ. eigenvalues --  -20.60927 -20.60922 -15.85954 -11.31238 -11.27822
 Alpha  occ. eigenvalues --  -11.27762 -11.27555 -11.26814 -11.26800 -11.21593
 Alpha  occ. eigenvalues --  -11.21211 -11.21092 -11.21039 -11.20704 -11.20439
 Alpha  occ. eigenvalues --   -1.59985  -1.39541  -1.19419  -1.08828  -1.08065
 Alpha  occ. eigenvalues --   -1.04811  -1.03238  -0.95681  -0.95654  -0.86691
 Alpha  occ. eigenvalues --   -0.86211  -0.82504  -0.79377  -0.77884  -0.77487
 Alpha  occ. eigenvalues --   -0.72173  -0.71299  -0.70530  -0.65076  -0.64853
 Alpha  occ. eigenvalues --   -0.64646  -0.62183  -0.60625  -0.59084  -0.57277
 Alpha  occ. eigenvalues --   -0.55319  -0.54932  -0.53137  -0.52924  -0.52410
 Alpha  occ. eigenvalues --   -0.52070  -0.49596  -0.48942  -0.48928  -0.47634
 Alpha  occ. eigenvalues --   -0.46386  -0.45423  -0.45317  -0.44769  -0.43450
 Alpha  occ. eigenvalues --   -0.37396  -0.36378
 Alpha virt. eigenvalues --    0.04922   0.11156   0.16361   0.20920   0.23303
 Alpha virt. eigenvalues --    0.24476   0.26258   0.27060   0.27311   0.28351
 Alpha virt. eigenvalues --    0.29200   0.30915   0.31651   0.31849   0.32450

 Mulliken charges:
               1
     1  C   -0.306135
     2  C   -0.299228
     3  C   -0.476336
     4  H    0.171057
     5  H    0.145423
     6  H    0.151661
     7  H    0.148122
     8  H    0.153451
     9  H    0.161942
    10  H    0.157671
    11  C   -0.296588
    12  C   -0.308213
    13  C   -0.474393
    14  H    0.150570
    15  H    0.147102
    16  H    0.160164
    17  H    0.144061
    18  H    0.155328
    19  H    0.157748
    20  H    0.152441
    21  C   -0.170357
    22  C   -0.221014
    23  C   -0.170649
    24  C    0.157124
    25  C   -0.170534
    26  C   -0.218699
    27  H    0.225935
    28  H    0.224260
    29  H    0.280971
    30  H    0.275576
    31  H    0.223623
    32  N    0.489657
    33  O   -0.459070
    34  O   -0.462672
 Sum of Mulliken charges =  -0.00000

 Dipole moment (field-independent basis, Debye):
    X=              3.1895    Y=              3.9368    Z=              0.6890  Tot=              5.1133
 Quadrupole moment (field-independent basis, Debye-Ang):
   XX=            -78.5260   YY=           -101.3016   ZZ=            -93.3689
   XY=              5.3790   XZ=             -0.3167   YZ=              1.9733

 Normal termination of Gaussian 16 at Wed May  5 18:37:07 2021.
