 Gaussian 16, Revision A.03,
 Gaussian 16:  EM64L-G16RevA.03 25-Dec-2016

 -------------
 #p 6-31g* mp2
 -------------

 ------------------------------------------------------
 Input file generated by CHIRIPA (05-May-2021 14:57:22)
 ------------------------------------------------------
 Symbolic Z-matrix:
 Charge =  0 Multiplicity = 1

                         Standard orientation:
 ---------------------------------------------------------------------
 Center     Atomic      Atomic             Coordinates (Angstroms)
 Number     Number       Type             X           Y           Z
 ---------------------------------------------------------------------
      1          6           0       -1.820183    1.603698    0.607037
      2          6           0       -2.821930    2.005446   -0.282695
      3          6           0       -3.925022    1.182469   -0.528547
      4          6           0       -3.994627   -0.041227    0.135542
      5          6           0       -3.012766   -0.469509    1.027626
      6          6           0       -1.918625    0.369678    1.258209
      7          1           0       -0.966752    2.249302    0.792091
      8          1           0       -2.748113    2.963267   -0.789820
      9          1           0       -4.714840    1.468774   -1.212387
     10          1           0       -3.114101   -1.429954    1.518232
     11          1           0       -1.142154    0.055084    1.949707
     12          7           0       -5.157683   -0.921056   -0.116649
     13          8           0       -5.195576   -1.994370    0.481012
     14          8           0       -6.009371   -0.520693   -0.907201
     15          6           0        1.376427    0.394103   -0.656759
     16          6           0        2.235488    1.421786   -0.253766
     17          6           0        3.581826    1.157469    0.014677
     18          6           0        4.037528   -0.151913   -0.130735
     19          6           0        3.206439   -1.197265   -0.530509
     20          6           0        1.863785   -0.909843   -0.793604
     21          1           0        0.331991    0.608406   -0.863214
     22          1           0        1.859763    2.435395   -0.146652
     23          1           0        4.268778    1.934142    0.328194
     24          1           0        3.610085   -2.197713   -0.628446
     25          1           0        1.198921   -1.709938   -1.106412
     26          7           0        5.460884   -0.443964    0.150622
     27          8           0        5.837786   -1.605946    0.015050
     28          8           0        6.172658    0.494638    0.501394
 ---------------------------------------------------------------------

 SCF Done:  E(RHF) =  -868.336480059     A.U. after   16 cycles
 E2 =    -0.2601631142D+01 EUMP2 =    -0.87093811120044D+03

 The electronic state is 1-A.
 Alpha  occ. eigenvalues --  -20.61566 -20.61560 -20.61231 -20.61222 -15.86623
 Alpha  occ. eigenvalues --  -15.86289 -11.32205 -11.31758 -11.28760 -11.28745
 Alpha  occ. eigenvalues --  -11.28602 -11.28399 -11.28327 -11.28016 -11.27878
 Alpha  occ. eigenvalues --  -11.27825 -11.27470 -11.27314  -1.60637  -1.60304
 Alpha  occ. eigenvalues --   -1.40183  -1.39854  -1.20409  -1.19956  -1.09803
 Alpha  occ. eigenvalues --   -1.09318  -1.05808  -1.05381  -0.96599  -0.96120
 Alpha  occ. eigenvalues --   -0.87200  -0.86777  -0.83383  -0.82966  -0.78366
 Alpha  occ. eigenvalues --   -0.78006  -0.72836  -0.72504  -0.71965  -0.71694
 Alpha  occ. eigenvalues --   -0.71631  -0.70916  -0.66043  -0.65789  -0.65601
 Alpha  occ. eigenvalues --   -0.65392  -0.63114  -0.62726  -0.56409  -0.55977
 Alpha  occ. eigenvalues --   -0.54034  -0.53879  -0.53663  -0.53470  -0.49611
 Alpha  occ. eigenvalues --   -0.49579  -0.49272  -0.49251  -0.45540  -0.45236
 Alpha  occ. eigenvalues --   -0.38546  -0.37893  -0.37342  -0.36999
 Alpha virt. eigenvalues --    0.04060   0.04548   0.10188   0.10591   0.15417
 Alpha virt. eigenvalues --    0.16015   0.19283   0.21621   0.25002   0.26438
 Alpha virt. eigenvalues --    0.27788   0.28903   0.29808   0.31194   0.31667

 Mulliken charges:
               1
     1  C   -0.186178
     2  C   -0.219203
     3  C   -0.170300
     4  C    0.159717
     5  C   -0.172073
     6  C   -0.219933
     7  H    0.225978
     8  H    0.226177
     9  H    0.279011
    10  H    0.278973
    11  H    0.230400
    12  N    0.487772
    13  O   -0.457735
    14  O   -0.457591
    15  C   -0.178613
    16  C   -0.225589
    17  C   -0.169550
    18  C    0.158157
    19  C   -0.169894
    20  C   -0.222274
    21  H    0.234910
    22  H    0.216436
    23  H    0.276589
    24  H    0.277871
    25  H    0.227165
    26  N    0.488023
    27  O   -0.458521
    28  O   -0.459723
 Sum of Mulliken charges =  -0.00000

 Dipole moment (field-independent basis, Debye):
    X=             -1.1164    Y=              3.9600    Z=             -0.0889  Tot=              4.1153
 Quadrupole moment (field-independent basis, Debye-Ang):
   XX=           -177.0683   YY=            -98.8508   ZZ=           -103.1946
   XY=             -8.4401   XZ=             -4.8682   YZ=             -0.8477

 Normal termination of Gaussian 16 at Fri May  7 04:48:10 2021.
