 Gaussian 16, Revision A.03,
 Gaussian 16:  EM64L-G16RevA.03 25-Dec-2016

 -------------
 #p 6-31g* mp2
 -------------

 ------------------------------------------------------
 Input file generated by CHIRIPA (05-May-2021 14:53:12)
 ------------------------------------------------------
 Symbolic Z-matrix:
 Charge =  0 Multiplicity = 1

                         Standard orientation:
 ---------------------------------------------------------------------
 Center     Atomic      Atomic             Coordinates (Angstroms)
 Number     Number       Type             X           Y           Z
 ---------------------------------------------------------------------
      1          6           0       -3.635973    0.691224   -0.451235
      2          6           0       -3.688024    2.059522    0.229234
      3          6           0       -3.988644    3.195298   -0.749251
      4          1           0       -2.871258    0.709808   -1.239786
      5          1           0       -4.595886    0.501332   -0.951137
      6          1           0       -2.728784    2.246178    0.728869
      7          1           0       -4.452571    2.037620    1.016383
      8          1           0       -4.954694    3.036140   -1.239166
      9          1           0       -3.221113    3.245883   -1.528315
     10          1           0       -4.021235    4.164405   -0.241679
     11          6           0       -3.336383   -0.454365    0.513958
     12          6           0       -3.284332   -1.822662   -0.166511
     13          6           0       -2.983712   -2.958439    0.811974
     14          1           0       -2.376469   -0.264472    1.013860
     15          1           0       -4.101097   -0.472949    1.302508
     16          1           0       -2.519785   -1.800760   -0.953660
     17          1           0       -4.243571   -2.009318   -0.666146
     18          1           0       -3.751242   -3.009024    1.591038
     19          1           0       -2.017662   -2.799281    1.301889
     20          1           0       -2.951121   -3.927545    0.304401
     21          6           0        4.673477    1.465423    0.345112
     22          6           0        3.412545    1.788455    0.857189
     23          6           0        2.325000    0.932704    0.658482
     24          6           0        2.535067   -0.243140   -0.060234
     25          6           0        3.779176   -0.592797   -0.582943
     26          6           0        4.852452    0.277922   -0.372055
     27          1           0        5.512766    2.136006    0.504204
     28          1           0        3.270614    2.710010    1.414538
     29          1           0        1.338074    1.158242    1.043874
     30          1           0        3.889718   -1.518556   -1.134457
     31          1           0        5.830580    0.024480   -0.770898
     32          7           0        1.391285   -1.157008   -0.277043
     33          8           0        1.602478   -2.186927   -0.913677
     34          8           0        0.305253   -0.826075    0.193759
 ---------------------------------------------------------------------

 SCF Done:  E(RHF) =  -669.536503122     A.U. after   15 cycles
 E2 =    -0.2091794110D+01 EUMP2 =    -0.67162829723144D+03

 The electronic state is 1-A.
 Alpha  occ. eigenvalues --  -20.61099 -20.61094 -15.86122 -11.31389 -11.27947
 Alpha  occ. eigenvalues --  -11.27939 -11.27670 -11.26938 -11.26929 -11.20909
 Alpha  occ. eigenvalues --  -11.20569 -11.20323 -11.19967 -11.19889 -11.19448
 Alpha  occ. eigenvalues --   -1.60150  -1.39709  -1.19551  -1.08965  -1.07236
 Alpha  occ. eigenvalues --   -1.04939  -1.02357  -0.95815  -0.94834  -0.86342
 Alpha  occ. eigenvalues --   -0.85864  -0.82655  -0.78509  -0.77719  -0.76966
 Alpha  occ. eigenvalues --   -0.72359  -0.71458  -0.70659  -0.65216  -0.64942
 Alpha  occ. eigenvalues --   -0.63824  -0.62287  -0.59719  -0.58284  -0.56433
 Alpha  occ. eigenvalues --   -0.55444  -0.54106  -0.53273  -0.53029  -0.51593
 Alpha  occ. eigenvalues --   -0.51268  -0.49105  -0.49088  -0.48763  -0.46811
 Alpha  occ. eigenvalues --   -0.45545  -0.45133  -0.44529  -0.44321  -0.42605
 Alpha  occ. eigenvalues --   -0.37526  -0.36537
 Alpha virt. eigenvalues --    0.04804   0.11119   0.16308   0.21119   0.23804
 Alpha virt. eigenvalues --    0.25516   0.26764   0.27450   0.28264   0.28948
 Alpha virt. eigenvalues --    0.29131   0.31019   0.32452   0.32493   0.32701

 Mulliken charges:
               1
     1  C   -0.297753
     2  C   -0.297575
     3  C   -0.474904
     4  H    0.151958
     5  H    0.145462
     6  H    0.147121
     7  H    0.149943
     8  H    0.154871
     9  H    0.153488
    10  H    0.155951
    11  C   -0.301200
    12  C   -0.296162
    13  C   -0.477291
    14  H    0.164874
    15  H    0.140857
    16  H    0.164828
    17  H    0.141903
    18  H    0.145312
    19  H    0.167204
    20  H    0.156116
    21  C   -0.170407
    22  C   -0.218495
    23  C   -0.170443
    24  C    0.157244
    25  C   -0.170481
    26  C   -0.218570
    27  H    0.226406
    28  H    0.224295
    29  H    0.275273
    30  H    0.276088
    31  H    0.224177
    32  N    0.495259
    33  O   -0.457718
    34  O   -0.467629
 Sum of Mulliken charges =  -0.00000

 Dipole moment (field-independent basis, Debye):
    X=              4.4794    Y=              3.1348    Z=              0.7219  Tot=              5.5148
 Quadrupole moment (field-independent basis, Debye-Ang):
   XX=            -73.3760   YY=            -96.2594   ZZ=            -94.6590
   XY=              5.5517   XZ=             -0.1578   YZ=              2.2178

 Normal termination of Gaussian 16 at Thu May  6 11:58:52 2021.
