 Gaussian 16, Revision A.03,
 Gaussian 16:  EM64L-G16RevA.03 25-Dec-2016

 -------------
 #p 6-31g* mp2
 -------------

 ------------------------------------------------------
 Input file generated by CHIRIPA (05-May-2021 14:55:24)
 ------------------------------------------------------
 Symbolic Z-matrix:
 Charge =  0 Multiplicity = 1

                         Standard orientation:
 ---------------------------------------------------------------------
 Center     Atomic      Atomic             Coordinates (Angstroms)
 Number     Number       Type             X           Y           Z
 ---------------------------------------------------------------------
      1          6           0        0.709708   -0.648419    1.801724
      2          6           0        0.913121   -1.401213    0.640498
      3          6           0        1.951136   -1.081914   -0.239911
      4          6           0        2.770441    0.001546    0.073369
      5          6           0        2.593266    0.770711    1.222405
      6          6           0        1.548950    0.433234    2.088465
      7          1           0       -0.099095   -0.903519    2.480074
      8          1           0        0.262913   -2.241774    0.415259
      9          1           0        2.131103   -1.647816   -1.145882
     10          1           0        3.257850    1.602988    1.420044
     11          1           0        1.393335    1.019634    2.989556
     12          7           0        3.872677    0.349196   -0.851086
     13          8           0        4.580620    1.308483   -0.552385
     14          8           0        4.007795   -0.344185   -1.856870
     15          6           0       -3.208639   -0.585888    0.085808
     16          6           0       -3.125605   -1.802942   -0.836076
     17          6           0       -2.915435   -3.110331   -0.071644
     18          1           0       -2.287082   -0.520622    0.680296
     19          1           0       -4.031433   -0.730725    0.799551
     20          1           0       -2.304095   -1.655234   -1.548760
     21          1           0       -4.047387   -1.865208   -1.428577
     22          1           0       -3.739729   -3.284596    0.627477
     23          1           0       -1.986532   -3.073430    0.506611
     24          1           0       -2.858971   -3.967385   -0.749974
     25          6           0       -3.418636    0.728610   -0.663676
     26          6           0       -3.501671    1.945665    0.258207
     27          6           0       -3.711841    3.253054   -0.506224
     28          1           0       -2.595844    0.873448   -1.377420
     29          1           0       -4.340194    0.663345   -1.258165
     30          1           0       -2.579889    2.007930    0.850709
     31          1           0       -4.323181    1.797957    0.970892
     32          1           0       -4.640744    3.216153   -1.084480
     33          1           0       -2.887547    3.427319   -1.205346
     34          1           0       -3.768306    4.110108    0.172105
 ---------------------------------------------------------------------

 SCF Done:  E(RHF) =  -669.535413466     A.U. after   15 cycles
 E2 =    -0.2092537082D+01 EUMP2 =    -0.67162795054793D+03

 The electronic state is 1-A.
 Alpha  occ. eigenvalues --  -20.60808 -20.60803 -15.85862 -11.31248 -11.27813
 Alpha  occ. eigenvalues --  -11.27806 -11.27556 -11.26832 -11.26811 -11.22407
 Alpha  occ. eigenvalues --  -11.22127 -11.22117 -11.22089 -11.21898 -11.21426
 Alpha  occ. eigenvalues --   -1.59883  -1.39436  -1.19421  -1.09093  -1.08809
 Alpha  occ. eigenvalues --   -1.04824  -1.04200  -0.96657  -0.95644  -0.87671
 Alpha  occ. eigenvalues --   -0.86224  -0.82471  -0.80269  -0.78885  -0.77519
 Alpha  occ. eigenvalues --   -0.72080  -0.71207  -0.70527  -0.65794  -0.65068
 Alpha  occ. eigenvalues --   -0.64800  -0.62246  -0.61512  -0.60029  -0.58256
 Alpha  occ. eigenvalues --   -0.56008  -0.55292  -0.53343  -0.53182  -0.53103
 Alpha  occ. eigenvalues --   -0.52848  -0.50595  -0.48842  -0.48834  -0.48573
 Alpha  occ. eigenvalues --   -0.47302  -0.46433  -0.46323  -0.44837  -0.44433
 Alpha  occ. eigenvalues --   -0.37376  -0.36419
 Alpha virt. eigenvalues --    0.04983   0.11120   0.16402   0.19154   0.22814
 Alpha virt. eigenvalues --    0.23705   0.25500   0.26336   0.26559   0.28173
 Alpha virt. eigenvalues --    0.29122   0.29989   0.31044   0.31407   0.31667

 Mulliken charges:
               1
     1  C   -0.172993
     2  C   -0.223324
     3  C   -0.172723
     4  C    0.159020
     5  C   -0.171133
     6  C   -0.219481
     7  H    0.226704
     8  H    0.232837
     9  H    0.276312
    10  H    0.275881
    11  H    0.223943
    12  N    0.487937
    13  O   -0.460233
    14  O   -0.460180
    15  C   -0.301344
    16  C   -0.301369
    17  C   -0.478071
    18  H    0.145520
    19  H    0.149730
    20  H    0.152937
    21  H    0.156778
    22  H    0.159556
    23  H    0.142890
    24  H    0.164788
    25  C   -0.298504
    26  C   -0.299974
    27  C   -0.476262
    28  H    0.153069
    29  H    0.151463
    30  H    0.150135
    31  H    0.151307
    32  H    0.156256
    33  H    0.157722
    34  H    0.160808
 Sum of Mulliken charges =  -0.00000

 Dipole moment (field-independent basis, Debye):
    X=             -3.9772    Y=             -1.1712    Z=              3.1748  Tot=              5.2219
 Quadrupole moment (field-independent basis, Debye-Ang):
   XX=           -115.1715   YY=            -93.1370   ZZ=            -93.0300
   XY=             -1.9270   XZ=              9.8482   YZ=              3.0279

 Normal termination of Gaussian 16 at Wed May  5 16:05:43 2021.
