 Gaussian 16, Revision A.03,
 Gaussian 16:  EM64L-G16RevA.03 25-Dec-2016

 -------------
 #p 6-31g* mp2
 -------------

 ------------------------------------------------------
 Input file generated by CHIRIPA (05-May-2021 14:55:23)
 ------------------------------------------------------
 Symbolic Z-matrix:
 Charge =  0 Multiplicity = 1

                         Standard orientation:
 ---------------------------------------------------------------------
 Center     Atomic      Atomic             Coordinates (Angstroms)
 Number     Number       Type             X           Y           Z
 ---------------------------------------------------------------------
      1          6           0        3.106328    1.139528   -1.142413
      2          6           0        2.776889   -0.101784   -1.696610
      3          6           0        2.029428   -1.029879   -0.965522
      4          6           0        1.626030   -0.682103    0.322737
      5          6           0        1.938439    0.546535    0.902513
      6          6           0        2.686791    1.459163    0.153096
      7          1           0        3.687320    1.854487   -1.717460
      8          1           0        3.101356   -0.352728   -2.702489
      9          1           0        1.760428   -1.998020   -1.370195
     10          1           0        1.600768    0.768117    1.907649
     11          1           0        2.941176    2.422432    0.586047
     12          7           0        0.834254   -1.656448    1.106410
     13          8           0        0.490869   -1.325934    2.239320
     14          8           0        0.572039   -2.732204    0.572904
     15          6           0       -1.970072    1.348554   -0.453249
     16          6           0       -1.923800    2.356402    0.695703
     17          6           0       -1.364735    3.714034    0.269005
     18          1           0       -0.957644    1.218513   -0.859483
     19          1           0       -2.583201    1.759128   -1.267432
     20          1           0       -1.312076    1.943460    1.508039
     21          1           0       -2.936424    2.483914    1.099374
     22          1           0       -1.978415    4.150912   -0.525437
     23          1           0       -0.344839    3.607388   -0.114450
     24          1           0       -1.340609    4.419198    1.105678
     25          6           0       -2.526630   -0.013466   -0.042313
     26          6           0       -2.572900   -1.021313   -1.191264
     27          6           0       -3.131965   -2.378947   -0.764566
     28          1           0       -1.913500   -0.424040    0.771872
     29          1           0       -3.539056    0.116575    0.363923
     30          1           0       -1.560277   -1.148827   -1.594936
     31          1           0       -3.184625   -0.608372   -2.003600
     32          1           0       -4.151862   -2.272300   -0.381111
     33          1           0       -2.518286   -2.815824    0.029876
     34          1           0       -3.156092   -3.084110   -1.601239
 ---------------------------------------------------------------------

 SCF Done:  E(RHF) =  -669.536840866     A.U. after   15 cycles
 E2 =    -0.2094997929D+01 EUMP2 =    -0.67163183879550D+03

 The electronic state is 1-A.
 Alpha  occ. eigenvalues --  -20.61111 -20.61090 -15.86096 -11.31400 -11.27961
 Alpha  occ. eigenvalues --  -11.27956 -11.27682 -11.26960 -11.26944 -11.21445
 Alpha  occ. eigenvalues --  -11.21145 -11.21070 -11.20986 -11.20759 -11.20085
 Alpha  occ. eigenvalues --   -1.60147  -1.39702  -1.19567  -1.08972  -1.08023
 Alpha  occ. eigenvalues --   -1.04954  -1.03108  -0.95818  -0.95546  -0.86567
 Alpha  occ. eigenvalues --   -0.86347  -0.82649  -0.79203  -0.77795  -0.77706
 Alpha  occ. eigenvalues --   -0.72323  -0.71499  -0.70663  -0.65218  -0.64947
 Alpha  occ. eigenvalues --   -0.64638  -0.62301  -0.60500  -0.58966  -0.57148
 Alpha  occ. eigenvalues --   -0.55452  -0.54845  -0.53278  -0.53038  -0.52259
 Alpha  occ. eigenvalues --   -0.51964  -0.49487  -0.49095  -0.49090  -0.47502
 Alpha  occ. eigenvalues --   -0.46235  -0.45447  -0.45324  -0.44825  -0.43355
 Alpha  occ. eigenvalues --   -0.37519  -0.36534
 Alpha virt. eigenvalues --    0.04752   0.10985   0.16212   0.20839   0.22865
 Alpha virt. eigenvalues --    0.24384   0.26392   0.27037   0.27469   0.28247
 Alpha virt. eigenvalues --    0.28812   0.30622   0.31330   0.32016   0.32175

 Mulliken charges:
               1
     1  C   -0.170537
     2  C   -0.218303
     3  C   -0.171445
     4  C    0.159012
     5  C   -0.171015
     6  C   -0.218830
     7  H    0.226897
     8  H    0.224648
     9  H    0.276681
    10  H    0.276664
    11  H    0.225225
    12  N    0.487820
    13  O   -0.458289
    14  O   -0.457788
    15  C   -0.300480
    16  C   -0.299578
    17  C   -0.476338
    18  H    0.148418
    19  H    0.147390
    20  H    0.152336
    21  H    0.153712
    22  H    0.155654
    23  H    0.149238
    24  H    0.158461
    25  C   -0.308457
    26  C   -0.297702
    27  C   -0.480528
    28  H    0.161991
    29  H    0.149897
    30  H    0.146029
    31  H    0.147124
    32  H    0.150908
    33  H    0.175452
    34  H    0.155736
 Sum of Mulliken charges =  -0.00000

 Dipole moment (field-independent basis, Debye):
    X=              2.9653    Y=              3.2514    Z=             -2.6347  Tot=              5.1290
 Quadrupole moment (field-independent basis, Debye-Ang):
   XX=            -85.6335   YY=            -98.8883   ZZ=            -93.9768
   XY=              3.1133   XZ=             -4.0143   YZ=              5.7393

 Normal termination of Gaussian 16 at Thu May  6 17:39:14 2021.
