 Gaussian 16, Revision A.03,
 Gaussian 16:  EM64L-G16RevA.03 25-Dec-2016

 -------------
 #p 6-31g* mp2
 -------------

 ------------------------------------------------------
 Input file generated by CHIRIPA (05-May-2021 14:51:11)
 ------------------------------------------------------
 Symbolic Z-matrix:
 Charge =  0 Multiplicity = 1

                         Standard orientation:
 ---------------------------------------------------------------------
 Center     Atomic      Atomic             Coordinates (Angstroms)
 Number     Number       Type             X           Y           Z
 ---------------------------------------------------------------------
      1          6           0       -2.767031    0.889712    0.212512
      2          6           0       -3.300903   -0.272640   -0.625285
      3          6           0       -4.642328   -0.801075   -0.116238
      4          1           0       -2.661893    0.563169    1.256188
      5          1           0       -3.506331    1.702627    0.212310
      6          1           0       -2.560214   -1.082576   -0.624641
      7          1           0       -3.404600    0.056652   -1.667125
      8          1           0       -5.399324   -0.010332   -0.133089
      9          1           0       -4.550141   -1.156033    0.915318
     10          1           0       -5.005532   -1.631565   -0.729613
     11          6           0       -1.426673    1.428861   -0.283962
     12          6           0       -0.892801    2.591213    0.553834
     13          6           0        0.448625    3.119648    0.044787
     14          1           0       -0.687373    0.615946   -0.283761
     15          1           0       -1.531810    1.755405   -1.327639
     16          1           0       -0.789103    2.261922    1.595674
     17          1           0       -1.633489    3.401149    0.553190
     18          1           0        0.356437    3.474606   -0.986768
     19          1           0        1.205621    2.328906    0.061639
     20          1           0        0.811828    3.950139    0.658162
     21          6           0        1.543133   -1.471430    0.459274
     22          6           0        0.642762   -2.424909   -0.326980
     23          6           0       -0.460158   -3.041404    0.534004
     24          1           0        1.993690   -2.013784    1.301767
     25          1           0        0.927355   -0.672594    0.895247
     26          1           0        1.260242   -3.220939   -0.762492
     27          1           0        0.194445   -1.880271   -1.167812
     28          1           0       -1.100319   -2.260566    0.957191
     29          1           0       -0.028465   -3.608851    1.364815
     30          1           0       -1.091948   -3.719618   -0.047998
     31          6           0        2.650571   -0.847144   -0.387823
     32          6           0        3.550941    0.106336    0.398431
     33          6           0        4.653862    0.722831   -0.462554
     34          1           0        3.266349   -1.645980   -0.823796
     35          1           0        2.200013   -0.304789   -1.230316
     36          1           0        3.999259   -0.438302    1.239262
     37          1           0        2.933461    0.902366    0.833943
     38          1           0        4.222168    1.290278   -1.293364
     39          1           0        5.294022   -0.058007   -0.885740
     40          1           0        5.285652    1.401044    0.119450
 ---------------------------------------------------------------------

 SCF Done:  E(RHF) =  -470.731980916     A.U. after   11 cycles
 E2 =    -0.1586293851D+01 EUMP2 =    -0.47231827476758D+03

 The electronic state is 1-A.
 Alpha  occ. eigenvalues --  -11.21674 -11.21656 -11.21624 -11.21562 -11.21463
 Alpha  occ. eigenvalues --  -11.21434 -11.21401 -11.21375 -11.21145 -11.21114
 Alpha  occ. eigenvalues --  -11.21076 -11.21059  -1.08565  -1.08407  -1.03627
 Alpha  occ. eigenvalues --   -1.03523  -0.96054  -0.95996  -0.87115  -0.86969
 Alpha  occ. eigenvalues --   -0.79697  -0.79581  -0.78354  -0.78253  -0.65683
 Alpha  occ. eigenvalues --   -0.64631  -0.61329  -0.60684  -0.59417  -0.59360
 Alpha  occ. eigenvalues --   -0.57645  -0.57616  -0.55499  -0.55156  -0.52728
 Alpha  occ. eigenvalues --   -0.52693  -0.52507  -0.52393  -0.50310  -0.49606
 Alpha  occ. eigenvalues --   -0.48055  -0.47853  -0.46852  -0.46536  -0.46158
 Alpha  occ. eigenvalues --   -0.45824  -0.45749  -0.45264  -0.43840  -0.43807
 Alpha virt. eigenvalues --    0.18884   0.21340   0.23504   0.24746   0.26117
 Alpha virt. eigenvalues --    0.26428   0.27510   0.27882   0.28286   0.30220
 Alpha virt. eigenvalues --    0.30913   0.31615   0.31691   0.31848   0.32354

 Mulliken charges:
               1
     1  C   -0.298398
     2  C   -0.307914
     3  C   -0.475408
     4  H    0.148991
     5  H    0.150075
     6  H    0.161341
     7  H    0.151608
     8  H    0.155099
     9  H    0.155182
    10  H    0.160280
    11  C   -0.308080
    12  C   -0.299332
    13  C   -0.483765
    14  H    0.158727
    15  H    0.149807
    16  H    0.151654
    17  H    0.152604
    18  H    0.155412
    19  H    0.162329
    20  H    0.160697
    21  C   -0.302539
    22  C   -0.303585
    23  C   -0.478824
    24  H    0.150930
    25  H    0.151241
    26  H    0.153120
    27  H    0.154356
    28  H    0.156910
    29  H    0.156116
    30  H    0.160806
    31  C   -0.300148
    32  C   -0.304905
    33  C   -0.475973
    34  H    0.150325
    35  H    0.150975
    36  H    0.152516
    37  H    0.155977
    38  H    0.156014
    39  H    0.155239
    40  H    0.160539
 Sum of Mulliken charges =  -0.00000

 Dipole moment (field-independent basis, Debye):
    X=              0.0254    Y=             -0.0243    Z=             -0.0112  Tot=              0.0369
 Quadrupole moment (field-independent basis, Debye-Ang):
   XX=            -85.8080   YY=            -84.1956   ZZ=            -84.6698
   XY=             -1.6963   XZ=              1.0809   YZ=             -0.1949

 Normal termination of Gaussian 16 at Wed May  5 15:15:00 2021.
