 Gaussian 16, Revision A.03,
 Gaussian 16:  EM64L-G16RevA.03 25-Dec-2016

 -------------
 #p 6-31g* mp2
 -------------

 ------------------------------------------------------
 Input file generated by CHIRIPA (05-May-2021 14:55:21)
 ------------------------------------------------------
 Symbolic Z-matrix:
 Charge =  0 Multiplicity = 1

                         Standard orientation:
 ---------------------------------------------------------------------
 Center     Atomic      Atomic             Coordinates (Angstroms)
 Number     Number       Type             X           Y           Z
 ---------------------------------------------------------------------
      1          6           0       -2.116880   -2.112738    1.507294
      2          6           0       -1.850620   -0.839310    2.021110
      3          6           0       -1.776686    0.268126    1.171012
      4          6           0       -1.975063    0.064991   -0.193786
      5          6           0       -2.242017   -1.191199   -0.736016
      6          6           0       -2.311386   -2.284316    0.132794
      7          1           0       -2.172541   -2.967460    2.174939
      8          1           0       -1.699141   -0.703083    3.088135
      9          1           0       -1.572032    1.265053    1.542053
     10          1           0       -2.388549   -1.295627   -1.804211
     11          1           0       -2.518321   -3.272116   -0.269045
     12          7           0       -1.899208    1.229804   -1.103651
     13          8           0       -2.077753    1.024358   -2.302213
     14          8           0       -1.662645    2.326176   -0.601014
     15          6           0        2.388952    0.893131   -0.103907
     16          6           0        2.120881    1.742379    1.139034
     17          6           0        1.812071    3.201582    0.802647
     18          1           0        3.228927    1.327712   -0.662947
     19          1           0        1.514250    0.940262   -0.767286
     20          1           0        2.995281    1.692546    1.800513
     21          1           0        1.281569    1.305616    1.695280
     22          1           0        0.927015    3.270226    0.161894
     23          1           0        2.650465    3.659355    0.267724
     24          1           0        1.623640    3.790543    1.705685
     25          6           0        2.699213   -0.568051    0.216109
     26          6           0        2.967285   -1.417298   -1.026831
     27          6           0        3.276094   -2.876502   -0.690445
     28          1           0        3.573915   -0.615182    0.879488
     29          1           0        1.859238   -1.002632    0.775149
     30          1           0        3.806597   -0.980536   -1.583078
     31          1           0        2.092884   -1.367466   -1.688311
     32          1           0        2.437701   -3.334274   -0.155523
     33          1           0        4.161150   -2.945146   -0.049692
     34          1           0        3.464525   -3.465463   -1.593483
 ---------------------------------------------------------------------

 SCF Done:  E(RHF) =  -669.536416428     A.U. after   15 cycles
 E2 =    -0.2093565006D+01 EUMP2 =    -0.67162998143452D+03

 The electronic state is 1-A.
 Alpha  occ. eigenvalues --  -20.61027 -20.61019 -15.86052 -11.31365 -11.27925
 Alpha  occ. eigenvalues --  -11.27921 -11.27655 -11.26933 -11.26918 -11.21524
 Alpha  occ. eigenvalues --  -11.21300 -11.21251 -11.21136 -11.21078 -11.20293
 Alpha  occ. eigenvalues --   -1.60084  -1.39640  -1.19533  -1.08936  -1.08218
 Alpha  occ. eigenvalues --   -1.04924  -1.03281  -0.95789  -0.95695  -0.86718
 Alpha  occ. eigenvalues --   -0.86321  -0.82612  -0.79360  -0.78024  -0.77668
 Alpha  occ. eigenvalues --   -0.72275  -0.71407  -0.70633  -0.65189  -0.64952
 Alpha  occ. eigenvalues --   -0.64821  -0.62276  -0.60665  -0.59111  -0.57324
 Alpha  occ. eigenvalues --   -0.55423  -0.54982  -0.53248  -0.53007  -0.52404
 Alpha  occ. eigenvalues --   -0.52120  -0.49636  -0.49031  -0.49022  -0.47670
 Alpha  occ. eigenvalues --   -0.46413  -0.45591  -0.45532  -0.44905  -0.43544
 Alpha  occ. eigenvalues --   -0.37498  -0.36500
 Alpha virt. eigenvalues --    0.04792   0.11079   0.16261   0.20884   0.22814
 Alpha virt. eigenvalues --    0.24219   0.26428   0.26982   0.27765   0.27940
 Alpha virt. eigenvalues --    0.28748   0.30878   0.31512   0.31911   0.32186

 Mulliken charges:
               1
     1  C   -0.170636
     2  C   -0.219401
     3  C   -0.170013
     4  C    0.157291
     5  C   -0.171172
     6  C   -0.218428
     7  H    0.226618
     8  H    0.224843
     9  H    0.277659
    10  H    0.276145
    11  H    0.224352
    12  N    0.489282
    13  O   -0.458245
    14  O   -0.460448
    15  C   -0.298315
    16  C   -0.298367
    17  C   -0.487462
    18  H    0.151263
    19  H    0.151430
    20  H    0.148839
    21  H    0.141588
    22  H    0.181513
    23  H    0.153108
    24  H    0.154578
    25  C   -0.299054
    26  C   -0.299210
    27  C   -0.475232
    28  H    0.147907
    29  H    0.147418
    30  H    0.153389
    31  H    0.152586
    32  H    0.151287
    33  H    0.154962
    34  H    0.159924
 Sum of Mulliken charges =  -0.00000

 Dipole moment (field-independent basis, Debye):
    X=             -0.4560    Y=             -4.0577    Z=              3.0773  Tot=              5.1130
 Quadrupole moment (field-independent basis, Debye-Ang):
   XX=            -93.5418   YY=            -94.9845   ZZ=            -93.2959
   XY=              9.3877   XZ=             -5.7571   YZ=              3.4205

 Normal termination of Gaussian 16 at Wed May  5 17:27:26 2021.
