 Gaussian 16, Revision A.03,
 Gaussian 16:  EM64L-G16RevA.03 25-Dec-2016

 -------------
 #p 6-31g* mp2
 -------------

 ------------------------------------------------------
 Input file generated by CHIRIPA (05-May-2021 14:57:27)
 ------------------------------------------------------
 Symbolic Z-matrix:
 Charge =  0 Multiplicity = 1

                         Standard orientation:
 ---------------------------------------------------------------------
 Center     Atomic      Atomic             Coordinates (Angstroms)
 Number     Number       Type             X           Y           Z
 ---------------------------------------------------------------------
      1          6           0       -2.622872   -2.238408   -0.105126
      2          6           0       -2.581712   -1.644435    1.160584
      3          6           0       -2.556324   -0.252740    1.291307
      4          6           0       -2.573183    0.518141    0.129950
      5          6           0       -2.614070   -0.043925   -1.145079
      6          6           0       -2.638891   -1.437669   -1.251896
      7          1           0       -2.642374   -3.320306   -0.197389
      8          1           0       -2.569188   -2.263809    2.052920
      9          1           0       -2.524351    0.233323    2.258850
     10          1           0       -2.625678    0.599729   -2.016281
     11          1           0       -2.670846   -1.896208   -2.236156
     12          7           0       -2.546605    1.992550    0.255687
     13          8           0       -2.562198    2.649551   -0.782939
     14          8           0       -2.510684    2.463274    1.390485
     15          6           0        0.972647   -2.216303   -0.257732
     16          6           0        0.848099   -1.136167   -1.137683
     17          6           0        1.731712   -0.055231   -1.064527
     18          6           0        2.732720   -0.087476   -0.094871
     19          6           0        2.882634   -1.149128    0.796033
     20          6           0        1.987727   -2.219331    0.704621
     21          1           0        0.281848   -3.051832   -0.321652
     22          1           0        0.060730   -1.131112   -1.886062
     23          1           0        1.658077    0.793781   -1.733238
     24          1           0        3.677601   -1.125683    1.531489
     25          1           0        2.086842   -3.056837    1.389314
     26          7           0        3.674141    1.051182   -0.007760
     27          8           0        4.547521    0.998726    0.855427
     28          8           0        3.520819    1.974557   -0.804320
 ---------------------------------------------------------------------

 SCF Done:  E(RHF) =  -868.334021988     A.U. after   16 cycles
 E2 =    -0.2605125041D+01 EUMP2 =    -0.87093914702846D+03

 The electronic state is 1-A.
 Alpha  occ. eigenvalues --  -20.61338 -20.61324 -20.60668 -20.60649 -15.86397
 Alpha  occ. eigenvalues --  -15.85719 -11.32056 -11.31189 -11.28677 -11.28608
 Alpha  occ. eigenvalues --  -11.28491 -11.27791 -11.27769 -11.27737 -11.27715
 Alpha  occ. eigenvalues --  -11.27593 -11.26874 -11.26745  -1.60401  -1.59735
 Alpha  occ. eigenvalues --   -1.39948  -1.39285  -1.20277  -1.19382  -1.09640
 Alpha  occ. eigenvalues --   -1.08767  -1.05734  -1.04801  -0.96413  -0.95585
 Alpha  occ. eigenvalues --   -0.87113  -0.86211  -0.83246  -0.82414  -0.78215
 Alpha  occ. eigenvalues --   -0.77439  -0.72610  -0.71938  -0.71727  -0.71434
 Alpha  occ. eigenvalues --   -0.71059  -0.70532  -0.65928  -0.65734  -0.65044
 Alpha  occ. eigenvalues --   -0.64881  -0.63045  -0.62188  -0.56267  -0.55369
 Alpha  occ. eigenvalues --   -0.54348  -0.53807  -0.53013  -0.52660  -0.49390
 Alpha  occ. eigenvalues --   -0.49348  -0.48707  -0.48684  -0.45288  -0.44668
 Alpha  occ. eigenvalues --   -0.38444  -0.37398  -0.37181  -0.36261
 Alpha virt. eigenvalues --    0.04232   0.05139   0.10212   0.11244   0.15523
 Alpha virt. eigenvalues --    0.16594   0.19544   0.22054   0.25462   0.26310
 Alpha virt. eigenvalues --    0.28098   0.29232   0.29605   0.31635   0.32044

 Mulliken charges:
               1
     1  C   -0.176440
     2  C   -0.214992
     3  C   -0.166924
     4  C    0.164710
     5  C   -0.173098
     6  C   -0.229355
     7  H    0.224028
     8  H    0.225396
     9  H    0.279911
    10  H    0.277541
    11  H    0.223767
    12  N    0.487814
    13  O   -0.458353
    14  O   -0.455664
    15  C   -0.166903
    16  C   -0.211848
    17  C   -0.173521
    18  C    0.159254
    19  C   -0.171122
    20  C   -0.220533
    21  H    0.214409
    22  H    0.218496
    23  H    0.278114
    24  H    0.275560
    25  H    0.220154
    26  N    0.488148
    27  O   -0.460918
    28  O   -0.457633
 Sum of Mulliken charges =  -0.00000

 Dipole moment (field-independent basis, Debye):
    X=             -3.5843    Y=             -8.8906    Z=             -0.5855  Tot=              9.6038
 Quadrupole moment (field-independent basis, Debye-Ang):
   XX=           -122.5338   YY=           -110.0078   ZZ=            -97.2920
   XY=              1.3835   XZ=              2.4099   YZ=             -3.1081

 Normal termination of Gaussian 16 at Thu May  6 18:11:46 2021.
