 Gaussian 16, Revision A.03,
 Gaussian 16:  EM64L-G16RevA.03 25-Dec-2016

 -------------
 #p 6-31g* mp2
 -------------

 ------------------------------------------------------
 Input file generated by CHIRIPA (05-May-2021 14:57:25)
 ------------------------------------------------------
 Symbolic Z-matrix:
 Charge =  0 Multiplicity = 1

                         Standard orientation:
 ---------------------------------------------------------------------
 Center     Atomic      Atomic             Coordinates (Angstroms)
 Number     Number       Type             X           Y           Z
 ---------------------------------------------------------------------
      1          6           0       -2.363785    2.330507   -0.496569
      2          6           0       -3.747557    2.255502   -0.306645
      3          6           0       -4.376663    1.016816   -0.150343
      4          6           0       -3.587882   -0.131917   -0.189408
      5          6           0       -2.207181   -0.089930   -0.377003
      6          6           0       -1.599361    1.159615   -0.531081
      7          1           0       -1.883348    3.296965   -0.617124
      8          1           0       -4.343731    3.163180   -0.279410
      9          1           0       -5.446155    0.929860   -0.001871
     10          1           0       -1.639361   -1.012149   -0.399591
     11          1           0       -0.524519    1.214837   -0.678427
     12          7           0       -4.242621   -1.449006   -0.025115
     13          8           0       -3.525351   -2.446351   -0.063383
     14          8           0       -5.460678   -1.459057    0.138813
     15          6           0        1.251321    0.332008    1.323287
     16          6           0        1.608285   -0.963369    0.934579
     17          6           0        2.840557   -1.206203    0.320507
     18          6           0        3.695430   -0.125485    0.109484
     19          6           0        3.368440    1.176456    0.485403
     20          6           0        2.130987    1.395912    1.097856
     21          1           0        0.292050    0.511566    1.799684
     22          1           0        0.927118   -1.791527    1.108396
     23          1           0        3.142196   -2.199049    0.009557
     24          1           0        4.068471    1.981807    0.298899
     25          1           0        1.856415    2.402967    1.398680
     26          7           0        5.002724   -0.370188   -0.539749
     27          8           0        5.738130    0.598978   -0.714488
     28          8           0        5.267222   -1.526518   -0.861586
 ---------------------------------------------------------------------

 SCF Done:  E(RHF) =  -868.336929288     A.U. after   16 cycles
 E2 =    -0.2602005563D+01 EUMP2 =    -0.87093893485184D+03

 The electronic state is 1-A.
 Alpha  occ. eigenvalues --  -20.61442 -20.61423 -20.61288 -20.61279 -15.86488
 Alpha  occ. eigenvalues --  -15.86348 -11.31927 -11.31873 -11.28514 -11.28500
 Alpha  occ. eigenvalues --  -11.28457 -11.28443 -11.28211 -11.28197 -11.27549
 Alpha  occ. eigenvalues --  -11.27482 -11.27465 -11.27400  -1.60508  -1.60360
 Alpha  occ. eigenvalues --   -1.40060  -1.39908  -1.20121  -1.20064  -1.09512
 Alpha  occ. eigenvalues --   -1.09421  -1.05512  -1.05486  -0.96298  -0.96252
 Alpha  occ. eigenvalues --   -0.86944  -0.86832  -0.83186  -0.83001  -0.78183
 Alpha  occ. eigenvalues --   -0.78068  -0.72702  -0.72559  -0.71835  -0.71688
 Alpha  occ. eigenvalues --   -0.71239  -0.71128  -0.65770  -0.65702  -0.65492
 Alpha  occ. eigenvalues --   -0.65456  -0.62879  -0.62779  -0.56040  -0.55965
 Alpha  occ. eigenvalues --   -0.54072  -0.53778  -0.53572  -0.53313  -0.49466
 Alpha  occ. eigenvalues --   -0.49454  -0.49332  -0.49305  -0.45450  -0.45277
 Alpha  occ. eigenvalues --   -0.38277  -0.37998  -0.37140  -0.36964
 Alpha virt. eigenvalues --    0.04197   0.04568   0.10224   0.10655   0.15487
 Alpha virt. eigenvalues --    0.16195   0.20019   0.21475   0.25254   0.26967
 Alpha virt. eigenvalues --    0.27818   0.28294   0.30179   0.30851   0.31271

 Mulliken charges:
               1
     1  C   -0.173816
     2  C   -0.217641
     3  C   -0.170877
     4  C    0.160635
     5  C   -0.179182
     6  C   -0.228675
     7  H    0.226171
     8  H    0.225787
     9  H    0.277678
    10  H    0.272998
    11  H    0.234104
    12  N    0.488064
    13  O   -0.461685
    14  O   -0.457430
    15  C   -0.181207
    16  C   -0.226386
    17  C   -0.169058
    18  C    0.158435
    19  C   -0.169945
    20  C   -0.224829
    21  H    0.233999
    22  H    0.230951
    23  H    0.280001
    24  H    0.277450
    25  H    0.223229
    26  N    0.488044
    27  O   -0.459352
    28  O   -0.457460
 Sum of Mulliken charges =  -0.00000

 Dipole moment (field-independent basis, Debye):
    X=             -2.2334    Y=              5.4539    Z=              1.7023  Tot=              6.1344
 Quadrupole moment (field-independent basis, Debye-Ang):
   XX=           -150.7706   YY=           -100.7894   ZZ=           -105.5744
   XY=            -14.7373   XZ=              9.3346   YZ=             -0.4635

 Normal termination of Gaussian 16 at Thu May  6 16:21:57 2021.
