 Gaussian 16, Revision A.03,
 Gaussian 16:  EM64L-G16RevA.03 25-Dec-2016

 -------------
 #p 6-31g* mp2
 -------------

 ------------------------------------------------------
 Input file generated by CHIRIPA (05-May-2021 14:57:23)
 ------------------------------------------------------
 Symbolic Z-matrix:
 Charge =  0 Multiplicity = 1

                         Standard orientation:
 ---------------------------------------------------------------------
 Center     Atomic      Atomic             Coordinates (Angstroms)
 Number     Number       Type             X           Y           Z
 ---------------------------------------------------------------------
      1          6           0       -0.553474    1.435092   -1.163266
      2          6           0       -1.536048    2.050267   -0.380560
      3          6           0       -2.681904    1.346905    0.002640
      4          6           0       -2.813359    0.023892   -0.416460
      5          6           0       -1.852032   -0.616727   -1.196683
      6          6           0       -0.714318    0.105901   -1.568116
      7          1           0        0.333493    1.988964   -1.456375
      8          1           0       -1.413797    3.082414   -0.064693
      9          1           0       -3.458142    1.798707    0.608238
     10          1           0       -2.001964   -1.646882   -1.496216
     11          1           0        0.047130   -0.374414   -2.176012
     12          7           0       -4.022116   -0.730924   -0.017011
     13          8           0       -4.114233   -1.895438   -0.399188
     14          8           0       -4.854536   -0.143743    0.670690
     15          6           0        4.434243   -0.507101   -1.227797
     16          6           0        3.866569   -1.602843   -0.569300
     17          6           0        2.857457   -1.415877    0.380060
     18          6           0        2.438181   -0.113606    0.647619
     19          6           0        2.984113    0.998388    0.008308
     20          6           0        3.991983    0.787734   -0.937404
     21          1           0        5.217664   -0.661542   -1.963866
     22          1           0        4.208059   -2.609557   -0.792809
     23          1           0        2.400640   -2.246270    0.904642
     24          1           0        2.622883    1.990045    0.252329
     25          1           0        4.431027    1.640576   -1.447250
     26          7           0        1.370536    0.096864    1.650732
     27          8           0        1.018728    1.254200    1.868542
     28          8           0        0.905742   -0.899490    2.200170
 ---------------------------------------------------------------------

 SCF Done:  E(RHF) =  -868.336971413     A.U. after   16 cycles
 E2 =    -0.2603940294D+01 EUMP2 =    -0.87094091170661D+03

 The electronic state is 1-A.
 Alpha  occ. eigenvalues --  -20.61337 -20.61332 -20.60146 -20.60131 -15.86366
 Alpha  occ. eigenvalues --  -15.85194 -11.31946 -11.30528 -11.28572 -11.28463
 Alpha  occ. eigenvalues --  -11.28251 -11.27610 -11.27528 -11.27162 -11.27036
 Alpha  occ. eigenvalues --  -11.26910 -11.26225 -11.26071  -1.60381  -1.59212
 Alpha  occ. eigenvalues --   -1.39942  -1.38769  -1.20131  -1.18712  -1.09467
 Alpha  occ. eigenvalues --   -1.08137  -1.05563  -1.04116  -0.96279  -0.94975
 Alpha  occ. eigenvalues --   -0.86936  -0.85529  -0.83113  -0.81809  -0.78143
 Alpha  occ. eigenvalues --   -0.76837  -0.72612  -0.71724  -0.71425  -0.71218
 Alpha  occ. eigenvalues --   -0.70519  -0.69893  -0.65767  -0.65537  -0.64387
 Alpha  occ. eigenvalues --   -0.64149  -0.62898  -0.61478  -0.56016  -0.54741
 Alpha  occ. eigenvalues --   -0.53869  -0.53619  -0.52421  -0.52229  -0.49387
 Alpha  occ. eigenvalues --   -0.49343  -0.48178  -0.48173  -0.45339  -0.44184
 Alpha  occ. eigenvalues --   -0.38190  -0.37224  -0.36544  -0.35620
 Alpha virt. eigenvalues --    0.04348   0.05675   0.10421   0.11983   0.15856
 Alpha virt. eigenvalues --    0.17207   0.20374   0.21961   0.26124   0.27268
 Alpha virt. eigenvalues --    0.27866   0.29024   0.30424   0.31164   0.32360

 Mulliken charges:
               1
     1  C   -0.171779
     2  C   -0.201899
     3  C   -0.167845
     4  C    0.161214
     5  C   -0.168893
     6  C   -0.226611
     7  H    0.216313
     8  H    0.223572
     9  H    0.275740
    10  H    0.272661
    11  H    0.219170
    12  N    0.488684
    13  O   -0.462934
    14  O   -0.460159
    15  C   -0.172231
    16  C   -0.219243
    17  C   -0.173120
    18  C    0.163670
    19  C   -0.179483
    20  C   -0.220577
    21  H    0.227959
    22  H    0.226676
    23  H    0.279288
    24  H    0.271542
    25  H    0.224106
    26  N    0.491062
    27  O   -0.461602
    28  O   -0.455280
 Sum of Mulliken charges =  -0.00000

 Dipole moment (field-independent basis, Debye):
    X=              8.0273    Y=              1.8777    Z=             -4.6776  Tot=              9.4785
 Quadrupole moment (field-independent basis, Debye-Ang):
   XX=           -110.9537   YY=            -96.4856   ZZ=           -108.4552
   XY=            -11.6036   XZ=             -5.3629   YZ=              0.2368

 Normal termination of Gaussian 16 at Fri May  7 11:02:17 2021.
