 Gaussian 16, Revision A.03,
 Gaussian 16:  EM64L-G16RevA.03 25-Dec-2016

 -------------
 #p 6-31g* mp2
 -------------

 ------------------------------------------------------
 Input file generated by CHIRIPA (05-May-2021 14:57:23)
 ------------------------------------------------------
 Symbolic Z-matrix:
 Charge =  0 Multiplicity = 1

                         Standard orientation:
 ---------------------------------------------------------------------
 Center     Atomic      Atomic             Coordinates (Angstroms)
 Number     Number       Type             X           Y           Z
 ---------------------------------------------------------------------
      1          6           0       -3.861651   -1.515773    0.107112
      2          6           0       -3.808723   -0.363862    0.898833
      3          6           0       -2.929656    0.675930    0.581622
      4          6           0       -2.114120    0.529799   -0.539466
      5          6           0       -2.143614   -0.605481   -1.347896
      6          6           0       -3.030393   -1.632700   -1.011753
      7          1           0       -4.547527   -2.318624    0.360883
      8          1           0       -4.453117   -0.270315    1.768344
      9          1           0       -2.868175    1.578639    1.177233
     10          1           0       -1.488904   -0.669854   -2.208495
     11          1           0       -3.069348   -2.526142   -1.628428
     12          7           0       -1.179409    1.623925   -0.885304
     13          8           0       -0.471343    1.470801   -1.878195
     14          8           0       -1.172548    2.613907   -0.156932
     15          6           0        4.310341   -0.403258   -0.998268
     16          6           0        3.369486   -1.436110   -1.065584
     17          6           0        2.234243   -1.416692   -0.249869
     18          6           0        2.070743   -0.344274    0.625620
     19          6           0        2.990214    0.699622    0.715866
     20          6           0        4.118040    0.659438   -0.109325
     21          1           0        5.189344   -0.426408   -1.635617
     22          1           0        3.516231   -2.262673   -1.755007
     23          1           0        1.490050   -2.203197   -0.281531
     24          1           0        2.816554    1.510300    1.413046
     25          1           0        4.847062    1.462937   -0.054903
     26          7           0        0.872837   -0.312725    1.494197
     27          8           0        0.751908    0.643288    2.257119
     28          8           0        0.077530   -1.244608    1.395618
 ---------------------------------------------------------------------

 SCF Done:  E(RHF) =  -868.337887385     A.U. after   16 cycles
 E2 =    -0.2602823498D+01 EUMP2 =    -0.87094071088319D+03

 The electronic state is 1-A.
 Alpha  occ. eigenvalues --  -20.60583 -20.60544 -20.60117 -20.60062 -15.85555
 Alpha  occ. eigenvalues --  -15.85110 -11.30716 -11.30125 -11.27346 -11.27227
 Alpha  occ. eigenvalues --  -11.27017 -11.26815 -11.26660 -11.26492 -11.26306
 Alpha  occ. eigenvalues --  -11.26218 -11.25774 -11.25649  -1.59643  -1.59177
 Alpha  occ. eigenvalues --   -1.39190  -1.38730  -1.18877  -1.18307  -1.08330
 Alpha  occ. eigenvalues --   -1.07802  -1.04263  -1.03701  -0.95203  -0.94684
 Alpha  occ. eigenvalues --   -0.85684  -0.85146  -0.82046  -0.81545  -0.77114
 Alpha  occ. eigenvalues --   -0.76613  -0.71809  -0.71356  -0.71327  -0.70158
 Alpha  occ. eigenvalues --   -0.70026  -0.69513  -0.64556  -0.64298  -0.64018
 Alpha  occ. eigenvalues --   -0.63777  -0.61634  -0.61099  -0.54807  -0.54287
 Alpha  occ. eigenvalues --   -0.52602  -0.52382  -0.51976  -0.51858  -0.48588
 Alpha  occ. eigenvalues --   -0.48540  -0.48130  -0.48085  -0.44696  -0.44089
 Alpha  occ. eigenvalues --   -0.36854  -0.36214  -0.35829  -0.35217
 Alpha virt. eigenvalues --    0.05270   0.06018   0.11778   0.12429   0.16903
 Alpha virt. eigenvalues --    0.17504   0.21826   0.22316   0.27682   0.28179
 Alpha virt. eigenvalues --    0.28719   0.29226   0.31303   0.31801   0.32875

 Mulliken charges:
               1
     1  C   -0.166543
     2  C   -0.213930
     3  C   -0.157233
     4  C    0.159376
     5  C   -0.168550
     6  C   -0.215956
     7  H    0.221807
     8  H    0.221257
     9  H    0.276749
    10  H    0.267352
    11  H    0.216658
    12  N    0.482918
    13  O   -0.469052
    14  O   -0.456301
    15  C   -0.168620
    16  C   -0.217252
    17  C   -0.169751
    18  C    0.159753
    19  C   -0.163862
    20  C   -0.216780
    21  H    0.224455
    22  H    0.220121
    23  H    0.269679
    24  H    0.278189
    25  H    0.223658
    26  N    0.482166
    27  O   -0.455847
    28  O   -0.464462
 Sum of Mulliken charges =  -0.00000

 Dipole moment (field-independent basis, Debye):
    X=              0.9879    Y=             -3.7966    Z=             -1.5681  Tot=              4.2248
 Quadrupole moment (field-independent basis, Debye-Ang):
   XX=            -73.2729   YY=           -104.6439   ZZ=           -107.3485
   XY=              5.7038   XZ=             -6.0320   YZ=              8.2867

 Normal termination of Gaussian 16 at Fri May  7 01:52:06 2021.
