 Gaussian 16, Revision A.03,
 Gaussian 16:  EM64L-G16RevA.03 25-Dec-2016

 -------------
 #p 6-31g* mp2
 -------------

 ------------------------------------------------------
 Input file generated by CHIRIPA (05-May-2021 14:51:12)
 ------------------------------------------------------
 Symbolic Z-matrix:
 Charge =  0 Multiplicity = 1

                         Standard orientation:
 ---------------------------------------------------------------------
 Center     Atomic      Atomic             Coordinates (Angstroms)
 Number     Number       Type             X           Y           Z
 ---------------------------------------------------------------------
      1          6           0        3.961240    0.450690    0.228487
      2          6           0        5.297002    0.471605   -0.515346
      3          6           0        6.069851    1.774176   -0.306043
      4          1           0        3.349273    1.299587   -0.105900
      5          1           0        4.144587    0.600987    1.301422
      6          1           0        5.111307    0.319932   -1.586387
      7          1           0        5.905785   -0.377551   -0.179289
      8          1           0        6.284123    1.928517    0.756439
      9          1           0        5.485132    2.629962   -0.658653
     10          1           0        7.021492    1.767650   -0.846595
     11          6           0        3.176982   -0.845027    0.029024
     12          6           0        1.841219   -0.865942    0.772856
     13          6           0        1.068371   -2.168513    0.563553
     14          1           0        2.993635   -0.995323   -1.043912
     15          1           0        3.788949   -1.693924    0.363410
     16          1           0        1.232437   -0.016786    0.436799
     17          1           0        2.026915   -0.714268    1.843897
     18          1           0        1.653090   -3.024299    0.916164
     19          1           0        0.854099   -2.322853   -0.498929
     20          1           0        0.116730   -2.161986    1.104105
     21          6           0       -3.127067   -0.378580   -0.366544
     22          6           0       -3.709748   -1.758048   -0.057460
     23          6           0       -2.813963   -2.899632   -0.539278
     24          1           0       -2.967628   -0.289251   -1.449846
     25          1           0       -2.137439   -0.292619    0.103182
     26          1           0       -4.698579   -1.840869   -0.526472
     27          1           0       -3.867998   -1.844032    1.025213
     28          1           0       -1.830208   -2.845128   -0.061937
     29          1           0       -2.665507   -2.841948   -1.622437
     30          1           0       -3.249556   -3.876708   -0.308107
     31          6           0       -4.011155    0.772916    0.109034
     32          6           0       -3.428473    2.152385   -0.200051
     33          6           0       -4.324258    3.293969    0.281768
     34          1           0       -5.000784    0.686955   -0.360692
     35          1           0       -4.170594    0.683587    1.192336
     36          1           0       -3.270224    2.238368   -1.282724
     37          1           0       -2.439644    2.235206    0.268962
     38          1           0       -4.472714    3.236284    1.364928
     39          1           0       -5.308014    3.239464   -0.195574
     40          1           0       -3.888665    4.271045    0.050597
 ---------------------------------------------------------------------

 SCF Done:  E(RHF) =  -470.732998070     A.U. after   11 cycles
 E2 =    -0.1582858702D+01 EUMP2 =    -0.47231585677198D+03

 The electronic state is 1-A.
 Alpha  occ. eigenvalues --  -11.21653 -11.21617 -11.21599 -11.21548 -11.21432
 Alpha  occ. eigenvalues --  -11.21385 -11.21372 -11.21324 -11.21124 -11.21083
 Alpha  occ. eigenvalues --  -11.21068 -11.20917  -1.08462  -1.08402  -1.03576
 Alpha  occ. eigenvalues --   -1.03482  -0.96039  -0.95919  -0.87077  -0.86918
 Alpha  occ. eigenvalues --   -0.79671  -0.79517  -0.78271  -0.78217  -0.65110
 Alpha  occ. eigenvalues --   -0.65022  -0.61020  -0.60872  -0.59442  -0.59259
 Alpha  occ. eigenvalues --   -0.57644  -0.57536  -0.55355  -0.55191  -0.52813
 Alpha  occ. eigenvalues --   -0.52627  -0.52441  -0.52285  -0.50019  -0.49798
 Alpha  occ. eigenvalues --   -0.47951  -0.47856  -0.46686  -0.46542  -0.45833
 Alpha  occ. eigenvalues --   -0.45745  -0.45731  -0.45667  -0.43782  -0.43741
 Alpha virt. eigenvalues --    0.21002   0.23115   0.23628   0.24830   0.26142
 Alpha virt. eigenvalues --    0.26731   0.26986   0.27240   0.28173   0.29207
 Alpha virt. eigenvalues --    0.30370   0.31297   0.31664   0.31723   0.32076

 Mulliken charges:
               1
     1  C   -0.298380
     2  C   -0.299677
     3  C   -0.475728
     4  H    0.149802
     5  H    0.149504
     6  H    0.152039
     7  H    0.151975
     8  H    0.155177
     9  H    0.155237
    10  H    0.160324
    11  C   -0.298731
    12  C   -0.300464
    13  C   -0.479693
    14  H    0.149974
    15  H    0.149823
    16  H    0.152590
    17  H    0.151875
    18  H    0.155708
    19  H    0.157770
    20  H    0.162315
    21  C   -0.300294
    22  C   -0.299216
    23  C   -0.483663
    24  H    0.149376
    25  H    0.151095
    26  H    0.151650
    27  H    0.151174
    28  H    0.165124
    29  H    0.154055
    30  H    0.159467
    31  C   -0.298165
    32  C   -0.299613
    33  C   -0.475670
    34  H    0.149618
    35  H    0.149583
    36  H    0.151766
    37  H    0.151679
    38  H    0.155226
    39  H    0.155208
    40  H    0.160159
 Sum of Mulliken charges =  -0.00000

 Dipole moment (field-independent basis, Debye):
    X=              0.0555    Y=             -0.0074    Z=              0.0036  Tot=              0.0561
 Quadrupole moment (field-independent basis, Debye-Ang):
   XX=            -85.2194   YY=            -86.2977   ZZ=            -83.3782
   XY=             -0.3966   XZ=              0.9089   YZ=             -0.6879

 Normal termination of Gaussian 16 at Thu May  6 03:55:47 2021.
