 Gaussian 16, Revision A.03,
 Gaussian 16:  EM64L-G16RevA.03 25-Dec-2016

 -------------
 #p 6-31g* mp2
 -------------

 ------------------------------------------------------
 Input file generated by CHIRIPA (05-May-2021 14:53:14)
 ------------------------------------------------------
 Symbolic Z-matrix:
 Charge =  0 Multiplicity = 1

                         Standard orientation:
 ---------------------------------------------------------------------
 Center     Atomic      Atomic             Coordinates (Angstroms)
 Number     Number       Type             X           Y           Z
 ---------------------------------------------------------------------
      1          6           0        4.052048    0.016549    0.416513
      2          6           0        3.205916   -1.228182    0.686128
      3          6           0        1.828631   -0.893863    1.259809
      4          1           0        4.169929    0.581531    1.351309
      5          1           0        3.513335    0.673749   -0.280102
      6          1           0        3.746674   -1.883485    1.380948
      7          1           0        3.090196   -1.790367   -0.249379
      8          1           0        1.266423   -0.259359    0.567041
      9          1           0        1.926630   -0.353006    2.206631
     10          1           0        1.240559   -1.798159    1.444956
     11          6           0        5.431722   -0.301391   -0.157194
     12          6           0        6.277853    0.943340   -0.426809
     13          6           0        7.655138    0.609021   -1.000490
     14          1           0        5.970434   -0.958591    0.539421
     15          1           0        5.313840   -0.866373   -1.091991
     16          1           0        6.393574    1.505525    0.508698
     17          1           0        5.737096    1.598643   -1.121629
     18          1           0        7.557139    0.068164   -1.947312
     19          1           0        8.217347   -0.025483   -0.307722
     20          1           0        8.243210    1.513317   -1.185637
     21          6           0       -6.210764    0.136517   -0.391845
     22          6           0       -5.472195   -0.985695   -0.781304
     23          6           0       -4.083137   -1.010737   -0.624973
     24          6           0       -3.462311    0.108825   -0.073207
     25          6           0       -4.170516    1.241778    0.324479
     26          6           0       -5.558716    1.244719    0.158832
     27          1           0       -7.289484    0.147386   -0.516905
     28          1           0       -5.975918   -1.847765   -1.209255
     29          1           0       -3.486966   -1.866399   -0.917956
     30          1           0       -3.640288    2.086091    0.748050
     31          1           0       -6.129740    2.117617    0.462185
     32          7           0       -1.992231    0.094013    0.097224
     33          8           0       -1.468999    1.093048    0.585891
     34          8           0       -1.391051   -0.916350   -0.261086
 ---------------------------------------------------------------------

 SCF Done:  E(RHF) =  -669.536172646     A.U. after   15 cycles
 E2 =    -0.2091540301D+01 EUMP2 =    -0.67162771294757D+03

 The electronic state is 1-A.
 Alpha  occ. eigenvalues --  -20.61014 -20.61000 -15.86016 -11.31331 -11.27887
 Alpha  occ. eigenvalues --  -11.27883 -11.27621 -11.26890 -11.26880 -11.20808
 Alpha  occ. eigenvalues --  -11.20428 -11.20410 -11.20127 -11.20031 -11.18815
 Alpha  occ. eigenvalues --   -1.60052  -1.39608  -1.19493  -1.08901  -1.07289
 Alpha  occ. eigenvalues --   -1.04886  -1.02270  -0.95747  -0.94678  -0.86287
 Alpha  occ. eigenvalues --   -0.85688  -0.82576  -0.78390  -0.77635  -0.77034
 Alpha  occ. eigenvalues --   -0.72221  -0.71358  -0.70601  -0.65147  -0.64890
 Alpha  occ. eigenvalues --   -0.63934  -0.62233  -0.59675  -0.58171  -0.56287
 Alpha  occ. eigenvalues --   -0.55401  -0.53980  -0.53219  -0.52977  -0.51380
 Alpha  occ. eigenvalues --   -0.51130  -0.49270  -0.48985  -0.48315  -0.46639
 Alpha  occ. eigenvalues --   -0.45409  -0.45021  -0.44569  -0.44418  -0.42522
 Alpha  occ. eigenvalues --   -0.37471  -0.36486
 Alpha virt. eigenvalues --    0.04895   0.11170   0.16399   0.21309   0.23912
 Alpha virt. eigenvalues --    0.25652   0.27227   0.27750   0.28194   0.28564
 Alpha virt. eigenvalues --    0.29454   0.30880   0.32428   0.32672   0.32803

 Mulliken charges:
               1
     1  C   -0.297257
     2  C   -0.300459
     3  C   -0.476218
     4  H    0.147215
     5  H    0.151269
     6  H    0.143761
     7  H    0.149157
     8  H    0.181661
     9  H    0.144740
    10  H    0.156877
    11  C   -0.297186
    12  C   -0.298772
    13  C   -0.475021
    14  H    0.146969
    15  H    0.147924
    16  H    0.150753
    17  H    0.151431
    18  H    0.154060
    19  H    0.153884
    20  H    0.157821
    21  C   -0.170522
    22  C   -0.218578
    23  C   -0.170833
    24  C    0.159435
    25  C   -0.170750
    26  C   -0.218594
    27  H    0.226109
    28  H    0.223938
    29  H    0.275875
    30  H    0.275991
    31  H    0.223956
    32  N    0.488121
    33  O   -0.458943
    34  O   -0.457812
 Sum of Mulliken charges =  -0.00000

 Dipole moment (field-independent basis, Debye):
    X=             -5.6708    Y=              0.1164    Z=             -0.6742  Tot=              5.7119
 Quadrupole moment (field-independent basis, Debye-Ang):
   XX=            -62.0282   YY=            -90.8157   ZZ=            -94.2639
   XY=             -0.6931   XZ=              3.0764   YZ=              2.1311

 Normal termination of Gaussian 16 at Wed May  5 15:35:20 2021.
