 Gaussian 16, Revision A.03,
 Gaussian 16:  EM64L-G16RevA.03 25-Dec-2016

 -------------
 #p 6-31g* mp2
 -------------

 ------------------------------------------------------
 Input file generated by CHIRIPA (05-May-2021 14:51:11)
 ------------------------------------------------------
 Symbolic Z-matrix:
 Charge =  0 Multiplicity = 1

                         Standard orientation:
 ---------------------------------------------------------------------
 Center     Atomic      Atomic             Coordinates (Angstroms)
 Number     Number       Type             X           Y           Z
 ---------------------------------------------------------------------
      1          6           0        2.864729   -0.284979    0.636914
      2          6           0        2.239592   -1.680108    0.608591
      3          6           0        2.754822   -2.581655    1.730885
      4          1           0        3.956859   -0.377916    0.562350
      5          1           0        2.656492    0.182845    1.609114
      6          1           0        2.447765   -2.144620   -0.363782
      7          1           0        1.148810   -1.583829    0.683038
      8          1           0        2.533520   -2.143349    2.709412
      9          1           0        3.839855   -2.707326    1.656644
     10          1           0        2.294893   -3.574025    1.691800
     11          6           0        2.359618    0.627971   -0.478933
     12          6           0        2.984755    2.023101   -0.450610
     13          6           0        2.469524    2.924648   -1.572904
     14          1           0        2.567855    0.160148   -1.451133
     15          1           0        1.267488    0.720908   -0.404369
     16          1           0        4.075536    1.926822   -0.525057
     17          1           0        2.776582    2.487613    0.521763
     18          1           0        1.384492    3.050319   -1.498663
     19          1           0        2.690826    2.486342   -2.551431
     20          1           0        2.929453    3.917018   -1.533819
     21          6           0       -2.398431    0.456198    0.300149
     22          6           0       -3.572014    1.347808    0.707237
     23          6           0       -3.128387    2.599590    1.464884
     24          1           0       -1.839468    0.163389    1.199465
     25          1           0       -1.704905    1.036964   -0.323652
     26          1           0       -4.263817    0.765134    1.328940
     27          1           0       -4.128361    1.638371   -0.193134
     28          1           0       -2.455637    3.204730    0.848593
     29          1           0       -2.591863    2.326530    2.379315
     30          1           0       -3.983126    3.222584    1.746238
     31          6           0       -2.825915   -0.799190   -0.458130
     32          6           0       -1.652333   -1.690801   -0.865219
     33          6           0       -2.095960   -2.942584   -1.622866
     34          1           0       -3.519441   -1.379957    0.165670
     35          1           0       -3.384878   -0.506381   -1.357446
     36          1           0       -1.095986   -1.981364    0.035152
     37          1           0       -0.960529   -1.108127   -1.486921
     38          1           0       -2.632484   -2.669523   -2.537296
     39          1           0       -2.768710   -3.547722   -1.006573
     40          1           0       -1.241221   -3.565577   -1.904220
 ---------------------------------------------------------------------

 SCF Done:  E(RHF) =  -470.733160824     A.U. after   11 cycles
 E2 =    -0.1583761886D+01 EUMP2 =    -0.47231692270937D+03

 The electronic state is 1-A.
 Alpha  occ. eigenvalues --  -11.21661 -11.21594 -11.21578 -11.21503 -11.21474
 Alpha  occ. eigenvalues --  -11.21397 -11.21356 -11.21297 -11.21126 -11.21076
 Alpha  occ. eigenvalues --  -11.21075 -11.21040  -1.08489  -1.08380  -1.03574
 Alpha  occ. eigenvalues --   -1.03488  -0.96019  -0.95949  -0.87037  -0.86964
 Alpha  occ. eigenvalues --   -0.79712  -0.79495  -0.78428  -0.78065  -0.65120
 Alpha  occ. eigenvalues --   -0.65016  -0.61020  -0.60850  -0.59432  -0.59274
 Alpha  occ. eigenvalues --   -0.57653  -0.57533  -0.55306  -0.55240  -0.52717
 Alpha  occ. eigenvalues --   -0.52639  -0.52452  -0.52368  -0.49978  -0.49889
 Alpha  occ. eigenvalues --   -0.48163  -0.47753  -0.46805  -0.46498  -0.46251
 Alpha  occ. eigenvalues --   -0.45713  -0.45668  -0.45174  -0.43822  -0.43741
 Alpha virt. eigenvalues --    0.20746   0.23060   0.23510   0.24350   0.24920
 Alpha virt. eigenvalues --    0.26257   0.26921   0.27491   0.28132   0.30319
 Alpha virt. eigenvalues --    0.30922   0.31244   0.31507   0.31932   0.32036

 Mulliken charges:
               1
     1  C   -0.297497
     2  C   -0.306870
     3  C   -0.475479
     4  H    0.149276
     5  H    0.149095
     6  H    0.151234
     7  H    0.160277
     8  H    0.154614
     9  H    0.155082
    10  H    0.159721
    11  C   -0.302702
    12  C   -0.299505
    13  C   -0.475548
    14  H    0.148931
    15  H    0.154388
    16  H    0.151914
    17  H    0.152095
    18  H    0.154287
    19  H    0.155049
    20  H    0.160338
    21  C   -0.300773
    22  C   -0.299625
    23  C   -0.475742
    24  H    0.149057
    25  H    0.150880
    26  H    0.152293
    27  H    0.152354
    28  H    0.155001
    29  H    0.155078
    30  H    0.160631
    31  C   -0.297851
    32  C   -0.305881
    33  C   -0.475467
    34  H    0.149535
    35  H    0.149822
    36  H    0.156666
    37  H    0.154580
    38  H    0.155128
    39  H    0.154934
    40  H    0.160682
 Sum of Mulliken charges =  -0.00000

 Dipole moment (field-independent basis, Debye):
    X=             -0.0443    Y=             -0.0067    Z=             -0.0090  Tot=              0.0457
 Quadrupole moment (field-independent basis, Debye-Ang):
   XX=            -84.3613   YY=            -85.9560   ZZ=            -84.5237
   XY=             -0.1316   XZ=             -0.8597   YZ=             -0.1560

 Normal termination of Gaussian 16 at Thu May  6 02:16:18 2021.
