 Gaussian 16, Revision A.03,
 Gaussian 16:  EM64L-G16RevA.03 25-Dec-2016

 -------------
 #p 6-31g* mp2
 -------------

 ------------------------------------------------------
 Input file generated by CHIRIPA (05-May-2021 14:55:22)
 ------------------------------------------------------
 Symbolic Z-matrix:
 Charge =  0 Multiplicity = 1

                         Standard orientation:
 ---------------------------------------------------------------------
 Center     Atomic      Atomic             Coordinates (Angstroms)
 Number     Number       Type             X           Y           Z
 ---------------------------------------------------------------------
      1          6           0       -1.487815    1.419613    2.047070
      2          6           0       -1.840475    0.102733    2.360085
      3          6           0       -2.238377   -0.783781    1.354940
      4          6           0       -2.272340   -0.317817    0.041542
      5          6           0       -1.926940    0.988291   -0.302070
      6          6           0       -1.532095    1.857418    0.719333
      7          1           0       -1.179902    2.101525    2.834206
      8          1           0       -1.807026   -0.240025    3.390348
      9          1           0       -2.516659   -1.808499    1.569251
     10          1           0       -1.970181    1.300959   -1.338308
     11          1           0       -1.258766    2.879576    0.473305
     12          7           0       -2.691962   -1.247126   -1.031166
     13          8           0       -2.713529   -0.812119   -2.180488
     14          8           0       -2.991351   -2.392929   -0.702321
     15          6           0        3.223604   -0.197473    0.224452
     16          6           0        3.531282   -1.617137   -0.252911
     17          6           0        4.339154   -2.421383    0.766073
     18          1           0        4.167028    0.322796    0.439434
     19          1           0        2.671660   -0.248674    1.173204
     20          1           0        4.081276   -1.563298   -1.201185
     21          1           0        2.587024   -2.134024   -0.466964
     22          1           0        3.793045   -2.504760    1.711280
     23          1           0        5.295788   -1.930791    0.972886
     24          1           0        4.547896   -3.433083    0.404479
     25          6           0        2.416538    0.618992   -0.783395
     26          6           0        2.108860    2.038656   -0.306032
     27          6           0        1.300988    2.842902   -1.325016
     28          1           0        2.968482    0.670193   -1.732147
     29          1           0        1.473114    0.098724   -0.998377
     30          1           0        3.053119    2.555543   -0.091979
     31          1           0        1.558866    1.984817    0.642242
     32          1           0        0.344355    2.352310   -1.531829
     33          1           0        1.847097    2.926279   -2.270222
     34          1           0        1.092247    3.854602   -0.963422
 ---------------------------------------------------------------------

 SCF Done:  E(RHF) =  -669.534494926     A.U. after   15 cycles
 E2 =    -0.2094269468D+01 EUMP2 =    -0.67162876439406D+03

 The electronic state is 1-A.
 Alpha  occ. eigenvalues --  -20.60850 -20.60844 -15.85904 -11.31307 -11.27847
 Alpha  occ. eigenvalues --  -11.27841 -11.27583 -11.26879 -11.26840 -11.22003
 Alpha  occ. eigenvalues --  -11.21688 -11.21660 -11.21588 -11.21525 -11.21147
 Alpha  occ. eigenvalues --   -1.59925  -1.39477  -1.19472  -1.08863  -1.08649
 Alpha  occ. eigenvalues --   -1.04891  -1.03797  -0.96279  -0.95687  -0.87302
 Alpha  occ. eigenvalues --   -0.86263  -0.82519  -0.79875  -0.78441  -0.77566
 Alpha  occ. eigenvalues --   -0.72119  -0.71251  -0.70571  -0.65350  -0.65112
 Alpha  occ. eigenvalues --   -0.64848  -0.62329  -0.61129  -0.59659  -0.57872
 Alpha  occ. eigenvalues --   -0.55619  -0.55312  -0.53171  -0.53046  -0.52903
 Alpha  occ. eigenvalues --   -0.52655  -0.50217  -0.48880  -0.48873  -0.48184
 Alpha  occ. eigenvalues --   -0.46903  -0.45988  -0.45901  -0.44873  -0.44045
 Alpha  occ. eigenvalues --   -0.37422  -0.36405
 Alpha virt. eigenvalues --    0.04929   0.11070   0.16357   0.20480   0.22879
 Alpha virt. eigenvalues --    0.24143   0.25882   0.26500   0.26710   0.28032
 Alpha virt. eigenvalues --    0.29024   0.30388   0.31356   0.31420   0.31995

 Mulliken charges:
               1
     1  C   -0.173228
     2  C   -0.218230
     3  C   -0.171740
     4  C    0.157806
     5  C   -0.174345
     6  C   -0.213808
     7  H    0.226398
     8  H    0.223956
     9  H    0.275904
    10  H    0.276512
    11  H    0.228779
    12  N    0.488021
    13  O   -0.459950
    14  O   -0.460044
    15  C   -0.298336
    16  C   -0.300468
    17  C   -0.475637
    18  H    0.148752
    19  H    0.147727
    20  H    0.153190
    21  H    0.155219
    22  H    0.153526
    23  H    0.154485
    24  H    0.162032
    25  C   -0.299121
    26  C   -0.300055
    27  C   -0.480453
    28  H    0.151340
    29  H    0.153222
    30  H    0.152445
    31  H    0.148957
    32  H    0.151909
    33  H    0.161275
    34  H    0.153960
 Sum of Mulliken charges =  -0.00000

 Dipole moment (field-independent basis, Debye):
    X=              1.4638    Y=              3.1950    Z=              3.7644  Tot=              5.1499
 Quadrupole moment (field-independent basis, Debye-Ang):
   XX=           -101.7230   YY=            -95.1331   ZZ=            -92.6340
   XY=             -6.8986   XZ=            -10.0505   YZ=             -3.4710

 Normal termination of Gaussian 16 at Thu May  6 01:30:03 2021.
