 Gaussian 16, Revision A.03,
 Gaussian 16:  EM64L-G16RevA.03 25-Dec-2016

 -------------
 #p 6-31g* mp2
 -------------

 ------------------------------------------------------
 Input file generated by CHIRIPA (05-May-2021 14:55:19)
 ------------------------------------------------------
 Symbolic Z-matrix:
 Charge =  0 Multiplicity = 1

                         Standard orientation:
 ---------------------------------------------------------------------
 Center     Atomic      Atomic             Coordinates (Angstroms)
 Number     Number       Type             X           Y           Z
 ---------------------------------------------------------------------
      1          6           0        1.608436   -2.501016    0.889858
      2          6           0        0.830177   -1.404054    1.273926
      3          6           0        1.162258   -0.114266    0.848817
      4          6           0        2.284327    0.042912    0.036693
      5          6           0        3.079564   -1.030042   -0.362878
      6          6           0        2.728671   -2.310844    0.074120
      7          1           0        1.343160   -3.499464    1.224711
      8          1           0       -0.040363   -1.548757    1.907383
      9          1           0        0.577261    0.752592    1.131225
     10          1           0        3.941562   -0.854321   -0.994939
     11          1           0        3.334912   -3.160911   -0.225717
     12          7           0        2.645844    1.403596   -0.419644
     13          8           0        3.639285    1.515499   -1.134620
     14          8           0        1.928915    2.332433   -0.053705
     15          6           0       -2.783271    0.958919   -0.369179
     16          6           0       -2.552896    1.934665    0.785305
     17          6           0       -2.426097    3.384750    0.317365
     18          1           0       -1.953202    1.043838   -1.083824
     19          1           0       -3.693392    1.251231   -0.911055
     20          1           0       -1.644243    1.639782    1.325682
     21          1           0       -3.383515    1.847277    1.497381
     22          1           0       -3.335175    3.702356   -0.203506
     23          1           0       -1.586021    3.493683   -0.376181
     24          1           0       -2.261863    4.065201    1.158717
     25          6           0       -2.912073   -0.494676    0.082708
     26          6           0       -3.142449   -1.470421   -1.071775
     27          6           0       -3.269248   -2.920508   -0.603836
     28          1           0       -2.001954   -0.786987    0.624584
     29          1           0       -3.742143   -0.579595    0.797353
     30          1           0       -2.311830   -1.383033   -1.783852
     31          1           0       -4.051103   -1.175540   -1.612154
     32          1           0       -4.109325   -3.029439    0.089709
     33          1           0       -2.360171   -3.238112   -0.082965
     34          1           0       -3.433483   -3.600958   -1.445189
 ---------------------------------------------------------------------

 SCF Done:  E(RHF) =  -669.535021594     A.U. after   15 cycles
 E2 =    -0.2093765252D+01 EUMP2 =    -0.67162878684598D+03

 The electronic state is 1-A.
 Alpha  occ. eigenvalues --  -20.60854 -20.60847 -15.85903 -11.31264 -11.27834
 Alpha  occ. eigenvalues --  -11.27820 -11.27574 -11.26847 -11.26830 -11.21972
 Alpha  occ. eigenvalues --  -11.21826 -11.21796 -11.21581 -11.21566 -11.20828
 Alpha  occ. eigenvalues --   -1.59925  -1.39479  -1.19442  -1.08838  -1.08727
 Alpha  occ. eigenvalues --   -1.04846  -1.03762  -0.96190  -0.95669  -0.87205
 Alpha  occ. eigenvalues --   -0.86240  -0.82509  -0.79850  -0.78581  -0.77536
 Alpha  occ. eigenvalues --   -0.72121  -0.71248  -0.70554  -0.65426  -0.65075
 Alpha  occ. eigenvalues --   -0.64870  -0.62179  -0.61132  -0.59581  -0.57810
 Alpha  occ. eigenvalues --   -0.55491  -0.55337  -0.53171  -0.52985  -0.52858
 Alpha  occ. eigenvalues --   -0.52578  -0.50106  -0.48880  -0.48876  -0.48146
 Alpha  occ. eigenvalues --   -0.46881  -0.46094  -0.45986  -0.44882  -0.44023
 Alpha  occ. eigenvalues --   -0.37415  -0.36403
 Alpha virt. eigenvalues --    0.04943   0.11109   0.16305   0.19561   0.23049
 Alpha virt. eigenvalues --    0.23413   0.25113   0.26890   0.27456   0.27926
 Alpha virt. eigenvalues --    0.29619   0.30841   0.31218   0.31581   0.32081

 Mulliken charges:
               1
     1  C   -0.171990
     2  C   -0.221805
     3  C   -0.177762
     4  C    0.157988
     5  C   -0.170003
     6  C   -0.218868
     7  H    0.226388
     8  H    0.225445
     9  H    0.287391
    10  H    0.275920
    11  H    0.223942
    12  N    0.487253
    13  O   -0.459773
    14  O   -0.460883
    15  C   -0.300698
    16  C   -0.300598
    17  C   -0.477804
    18  H    0.154930
    19  H    0.152207
    20  H    0.141971
    21  H    0.151658
    22  H    0.153848
    23  H    0.168772
    24  H    0.161700
    25  C   -0.301780
    26  C   -0.299266
    27  C   -0.474984
    28  H    0.142620
    29  H    0.149346
    30  H    0.154922
    31  H    0.154437
    32  H    0.155584
    33  H    0.147790
    34  H    0.162102
 Sum of Mulliken charges =  -0.00000

 Dipole moment (field-independent basis, Debye):
    X=             -1.2512    Y=             -4.6754    Z=              1.4760  Tot=              5.0600
 Quadrupole moment (field-independent basis, Debye-Ang):
   XX=            -96.6793   YY=            -95.7895   ZZ=            -94.0742
   XY=            -13.3128   XZ=              1.6234   YZ=              1.0612

 Normal termination of Gaussian 16 at Thu May  6 01:18:57 2021.
