 Gaussian 16, Revision A.03,
 Gaussian 16:  EM64L-G16RevA.03 25-Dec-2016

 -------------
 #p 6-31g* mp2
 -------------

 ------------------------------------------------------
 Input file generated by CHIRIPA (05-May-2021 14:57:26)
 ------------------------------------------------------
 Symbolic Z-matrix:
 Charge =  0 Multiplicity = 1

                         Standard orientation:
 ---------------------------------------------------------------------
 Center     Atomic      Atomic             Coordinates (Angstroms)
 Number     Number       Type             X           Y           Z
 ---------------------------------------------------------------------
      1          6           0        2.296935   -2.344292    0.897852
      2          6           0        1.752318   -1.114138    1.280780
      3          6           0        2.311707    0.082986    0.824135
      4          6           0        3.420365    0.012691   -0.018021
      5          6           0        3.985781   -1.197338   -0.417300
      6          6           0        3.409966   -2.381900    0.051526
      7          1           0        1.856008   -3.269368    1.257317
      8          1           0        0.887949   -1.081896    1.937950
      9          1           0        1.910201    1.049099    1.104915
     10          1           0        4.847702   -1.197487   -1.073433
     11          1           0        3.835032   -3.335810   -0.247504
     12          7           0        4.021260    1.273383   -0.507899
     13          8           0        4.997756    1.184445   -1.248967
     14          8           0        3.504367    2.326582   -0.141521
     15          6           0       -2.526397    2.513881    0.534942
     16          6           0       -1.634579    1.436935    0.571962
     17          6           0       -2.064017    0.147829    0.242817
     18          6           0       -3.398181   -0.029087   -0.120496
     19          6           0       -4.310789    1.023666   -0.166869
     20          6           0       -3.859306    2.304179    0.166296
     21          1           0       -2.184237    3.511951    0.792191
     22          1           0       -0.598856    1.596832    0.857890
     23          1           0       -1.394838   -0.703761    0.263103
     24          1           0       -5.337252    0.833072   -0.455773
     25          1           0       -4.554129    3.138677    0.136669
     26          7           0       -3.864477   -1.389257   -0.471074
     27          8           0       -5.044941   -1.518777   -0.787882
     28          8           0       -3.040667   -2.300083   -0.422413
 ---------------------------------------------------------------------

 SCF Done:  E(RHF) =  -868.337817678     A.U. after   16 cycles
 E2 =    -0.2600361996D+01 EUMP2 =    -0.87093817967370D+03

 The electronic state is 1-A.
 Alpha  occ. eigenvalues --  -20.61311 -20.61284 -20.61149 -20.61127 -15.86358
 Alpha  occ. eigenvalues --  -15.86195 -11.31755 -11.31524 -11.28466 -11.28272
 Alpha  occ. eigenvalues --  -11.28135 -11.28068 -11.27989 -11.27793 -11.27397
 Alpha  occ. eigenvalues --  -11.27230 -11.27154 -11.27049  -1.60373  -1.60215
 Alpha  occ. eigenvalues --   -1.39928  -1.39771  -1.19925  -1.19695  -1.09282
 Alpha  occ. eigenvalues --   -1.09084  -1.05368  -1.05098  -0.96123  -0.95927
 Alpha  occ. eigenvalues --   -0.86740  -0.86489  -0.82993  -0.82759  -0.78085
 Alpha  occ. eigenvalues --   -0.77794  -0.72575  -0.72415  -0.71694  -0.71536
 Alpha  occ. eigenvalues --   -0.70999  -0.70781  -0.65586  -0.65437  -0.65340
 Alpha  occ. eigenvalues --   -0.65039  -0.62898  -0.62284  -0.55772  -0.55553
 Alpha  occ. eigenvalues --   -0.53631  -0.53561  -0.53409  -0.53088  -0.49340
 Alpha  occ. eigenvalues --   -0.49322  -0.49175  -0.49162  -0.45329  -0.45185
 Alpha  occ. eigenvalues --   -0.37838  -0.37644  -0.36965  -0.36704
 Alpha virt. eigenvalues --    0.04495   0.04713   0.10597   0.10953   0.15866
 Alpha virt. eigenvalues --    0.16197   0.18645   0.22262   0.24720   0.26213
 Alpha virt. eigenvalues --    0.28362   0.29149   0.30494   0.31059   0.32173

 Mulliken charges:
               1
     1  C   -0.168233
     2  C   -0.224313
     3  C   -0.177247
     4  C    0.161011
     5  C   -0.168917
     6  C   -0.217639
     7  H    0.232783
     8  H    0.223066
     9  H    0.269908
    10  H    0.278051
    11  H    0.227655
    12  N    0.488329
    13  O   -0.457050
    14  O   -0.463712
    15  C   -0.170647
    16  C   -0.220334
    17  C   -0.176133
    18  C    0.159441
    19  C   -0.169989
    20  C   -0.218481
    21  H    0.230207
    22  H    0.221250
    23  H    0.272647
    24  H    0.276619
    25  H    0.225536
    26  N    0.488371
    27  O   -0.458587
    28  O   -0.463591
 Sum of Mulliken charges =  -0.00000

 Dipole moment (field-independent basis, Debye):
    X=             -0.3652    Y=              0.2409    Z=              2.8635  Tot=              2.8967
 Quadrupole moment (field-independent basis, Debye-Ang):
   XX=           -123.0422   YY=           -103.3919   ZZ=           -105.2367
   XY=            -36.7262   XZ=              0.3197   YZ=              0.5620

 Normal termination of Gaussian 16 at Fri May  7 08:09:29 2021.
