 Gaussian 16, Revision A.03,
 Gaussian 16:  EM64L-G16RevA.03 25-Dec-2016

 -------------
 #p 6-31g* mp2
 -------------

 ------------------------------------------------------
 Input file generated by CHIRIPA (05-May-2021 14:53:13)
 ------------------------------------------------------
 Symbolic Z-matrix:
 Charge =  0 Multiplicity = 1

                         Standard orientation:
 ---------------------------------------------------------------------
 Center     Atomic      Atomic             Coordinates (Angstroms)
 Number     Number       Type             X           Y           Z
 ---------------------------------------------------------------------
      1          6           0        3.052341    0.870593   -0.274197
      2          6           0        3.112501    2.389279   -0.106984
      3          6           0        1.784313    3.072971   -0.432985
      4          1           0        2.759585    0.633018   -1.306087
      5          1           0        2.262626    0.468190    0.375277
      6          1           0        3.902796    2.788547   -0.755548
      7          1           0        3.405334    2.623265    0.924575
      8          1           0        0.989316    2.702518    0.222258
      9          1           0        1.489604    2.868739   -1.467411
     10          1           0        1.849805    4.158171   -0.306838
     11          6           0        4.372586    0.172866    0.048071
     12          6           0        4.312427   -1.345820   -0.119142
     13          6           0        5.640614   -2.029512    0.206859
     14          1           0        5.162301    0.575269   -0.601403
     15          1           0        4.665342    0.410441    1.079961
     16          1           0        4.019594   -1.579806   -1.150702
     17          1           0        3.522131   -1.745088    0.529421
     18          1           0        5.935323   -1.825280    1.241284
     19          1           0        6.435612   -1.659059   -0.448385
     20          1           0        5.575123   -3.114712    0.080711
     21          6           0       -0.644004   -1.525588    0.246041
     22          6           0       -1.720416   -2.200772   -0.338753
     23          6           0       -2.975095   -1.591077   -0.431498
     24          6           0       -3.118499   -0.299518    0.073084
     25          6           0       -2.065345    0.399166    0.661300
     26          6           0       -0.819594   -0.230058    0.743324
     27          1           0        0.327193   -2.006800    0.313923
     28          1           0       -1.586968   -3.206972   -0.725793
     29          1           0       -3.825451   -2.090856   -0.879308
     30          1           0       -2.229113    1.401426    1.038226
     31          1           0        0.014577    0.296702    1.197996
     32          7           0       -4.442045    0.356276   -0.019426
     33          8           0       -4.542433    1.494790    0.432621
     34          8           0       -5.353992   -0.280643   -0.542231
 ---------------------------------------------------------------------

 SCF Done:  E(RHF) =  -669.535197921     A.U. after   15 cycles
 E2 =    -0.2092159915D+01 EUMP2 =    -0.67162735783597D+03

 The electronic state is 1-A.
 Alpha  occ. eigenvalues --  -20.60719 -20.60714 -15.85772 -11.31132 -11.27707
 Alpha  occ. eigenvalues --  -11.27700 -11.27432 -11.26716 -11.26691 -11.22587
 Alpha  occ. eigenvalues --  -11.22431 -11.22373 -11.22258 -11.21850 -11.21815
 Alpha  occ. eigenvalues --   -1.59795  -1.39348  -1.19306  -1.09350  -1.08698
 Alpha  occ. eigenvalues --   -1.04714  -1.04380  -0.96814  -0.95534  -0.87826
 Alpha  occ. eigenvalues --   -0.86114  -0.82372  -0.80449  -0.79193  -0.77417
 Alpha  occ. eigenvalues --   -0.71991  -0.71118  -0.70408  -0.66037  -0.64958
 Alpha  occ. eigenvalues --   -0.64701  -0.62131  -0.61714  -0.60177  -0.58431
 Alpha  occ. eigenvalues --   -0.56108  -0.55202  -0.53481  -0.53240  -0.53037
 Alpha  occ. eigenvalues --   -0.52822  -0.50764  -0.48798  -0.48746  -0.48708
 Alpha  occ. eigenvalues --   -0.47484  -0.46694  -0.46624  -0.44755  -0.44648
 Alpha  occ. eigenvalues --   -0.37272  -0.36302
 Alpha virt. eigenvalues --    0.05108   0.11281   0.16540   0.18769   0.22362
 Alpha virt. eigenvalues --    0.22832   0.24967   0.25735   0.26403   0.27916
 Alpha virt. eigenvalues --    0.29556   0.30591   0.31073   0.31334   0.31607

 Mulliken charges:
               1
     1  C   -0.300731
     2  C   -0.301324
     3  C   -0.475201
     4  H    0.153614
     5  H    0.139180
     6  H    0.156062
     7  H    0.152773
     8  H    0.147199
     9  H    0.159690
    10  H    0.165052
    11  C   -0.298432
    12  C   -0.300394
    13  C   -0.475983
    14  H    0.153808
    15  H    0.151308
    16  H    0.153228
    17  H    0.143879
    18  H    0.156983
    19  H    0.158301
    20  H    0.161232
    21  C   -0.172871
    22  C   -0.219034
    23  C   -0.170967
    24  C    0.158439
    25  C   -0.171729
    26  C   -0.220077
    27  H    0.227723
    28  H    0.223327
    29  H    0.275403
    30  H    0.275509
    31  H    0.227097
    32  N    0.488021
    33  O   -0.460423
    34  O   -0.460659
 Sum of Mulliken charges =  -0.00000

 Dipole moment (field-independent basis, Debye):
    X=              4.8854    Y=             -2.2283    Z=              0.2244  Tot=              5.3743
 Quadrupole moment (field-independent basis, Debye-Ang):
   XX=           -123.5198   YY=            -90.3271   ZZ=            -93.4606
   XY=              8.3737   XZ=             -0.3945   YZ=              1.7773

 Normal termination of Gaussian 16 at Wed May  5 18:32:41 2021.
