 Gaussian 16, Revision A.03,
 Gaussian 16:  EM64L-G16RevA.03 25-Dec-2016

 -------------
 #p 6-31g* mp2
 -------------

 ------------------------------------------------------
 Input file generated by CHIRIPA (05-May-2021 14:55:25)
 ------------------------------------------------------
 Symbolic Z-matrix:
 Charge =  0 Multiplicity = 1

                         Standard orientation:
 ---------------------------------------------------------------------
 Center     Atomic      Atomic             Coordinates (Angstroms)
 Number     Number       Type             X           Y           Z
 ---------------------------------------------------------------------
      1          6           0       -2.251809    2.361919    0.472701
      2          6           0       -2.602882    1.917638   -0.806315
      3          6           0       -3.043148    0.605874   -1.006292
      4          6           0       -3.120633   -0.238586    0.100131
      5          6           0       -2.777993    0.174444    1.386713
      6          6           0       -2.340329    1.490441    1.563211
      7          1           0       -1.910811    3.382572    0.618929
      8          1           0       -2.535127    2.592236   -1.655061
      9          1           0       -3.321239    0.235792   -1.985640
     10          1           0       -2.855971   -0.521239    2.213371
     11          1           0       -2.068342    1.832736    2.557646
     12          7           0       -3.585345   -1.629532   -0.099148
     13          8           0       -3.644798   -2.353907    0.892005
     14          8           0       -3.881334   -1.969042   -1.242721
     15          6           0        4.410924   -0.530635   -0.014434
     16          6           0        5.837456    0.004991    0.112435
     17          6           0        6.855419   -1.092438    0.424197
     18          1           0        4.131769   -1.037047    0.919677
     19          1           0        4.382178   -1.293860   -0.804407
     20          1           0        5.863214    0.767968    0.900990
     21          1           0        6.113178    0.510353   -0.822018
     22          1           0        6.859111   -1.850214   -0.365971
     23          1           0        6.607727   -1.591136    1.366826
     24          1           0        7.868530   -0.687474    0.510624
     25          6           0        3.381825    0.554549   -0.325981
     26          6           0        1.955293    0.018923   -0.452850
     27          6           0        0.937330    1.116352   -0.764612
     28          1           0        3.410571    1.317774    0.463992
     29          1           0        3.660979    1.060961   -1.260092
     30          1           0        1.679571   -0.486439    0.481603
     31          1           0        1.929534   -0.744055   -1.241405
     32          1           0        1.185021    1.615049   -1.707241
     33          1           0        0.933638    1.874128    0.025556
     34          1           0       -0.075781    0.711388   -0.851039
 ---------------------------------------------------------------------

 SCF Done:  E(RHF) =  -669.533870348     A.U. after   15 cycles
 E2 =    -0.2093414936D+01 EUMP2 =    -0.67162728528335D+03

 The electronic state is 1-A.
 Alpha  occ. eigenvalues --  -20.60811 -20.60806 -15.85866 -11.31261 -11.27821
 Alpha  occ. eigenvalues --  -11.27787 -11.27502 -11.26816 -11.26766 -11.21706
 Alpha  occ. eigenvalues --  -11.21689 -11.21529 -11.21452 -11.21143 -11.21142
 Alpha  occ. eigenvalues --   -1.59887  -1.39439  -1.19429  -1.08808  -1.08539
 Alpha  occ. eigenvalues --   -1.04825  -1.03635  -0.96097  -0.95636  -0.87124
 Alpha  occ. eigenvalues --   -0.86208  -0.82466  -0.79712  -0.78358  -0.77518
 Alpha  occ. eigenvalues --   -0.72080  -0.71213  -0.70509  -0.65178  -0.65060
 Alpha  occ. eigenvalues --   -0.64809  -0.62161  -0.61047  -0.59541  -0.57741
 Alpha  occ. eigenvalues --   -0.55430  -0.55291  -0.53783  -0.52899  -0.52557
 Alpha  occ. eigenvalues --   -0.52032  -0.50040  -0.48842  -0.48836  -0.48015
 Alpha  occ. eigenvalues --   -0.46746  -0.45901  -0.45830  -0.44840  -0.43878
 Alpha  occ. eigenvalues --   -0.37324  -0.36373
 Alpha virt. eigenvalues --    0.04996   0.11175   0.16486   0.21281   0.22755
 Alpha virt. eigenvalues --    0.24229   0.26479   0.27191   0.27354   0.27746
 Alpha virt. eigenvalues --    0.28466   0.30700   0.31467   0.31832   0.32070

 Mulliken charges:
               1
     1  C   -0.165186
     2  C   -0.218124
     3  C   -0.175278
     4  C    0.160300
     5  C   -0.171405
     6  C   -0.217810
     7  H    0.225890
     8  H    0.224261
     9  H    0.275946
    10  H    0.275850
    11  H    0.223520
    12  N    0.488124
    13  O   -0.460184
    14  O   -0.460245
    15  C   -0.298363
    16  C   -0.299532
    17  C   -0.475760
    18  H    0.149978
    19  H    0.150923
    20  H    0.150814
    21  H    0.151674
    22  H    0.155996
    23  H    0.155466
    24  H    0.160130
    25  C   -0.298156
    26  C   -0.299498
    27  C   -0.479152
    28  H    0.146803
    29  H    0.148895
    30  H    0.152058
    31  H    0.154005
    32  H    0.149862
    33  H    0.146791
    34  H    0.171408
 Sum of Mulliken charges =  -0.00000

 Dipole moment (field-independent basis, Debye):
    X=              1.5413    Y=              4.8880    Z=              0.7112  Tot=              5.1744
 Quadrupole moment (field-independent basis, Debye-Ang):
   XX=           -106.5835   YY=            -98.0420   ZZ=            -88.8898
   XY=            -15.6371   XZ=             -1.7485   YZ=             -0.3204

 Normal termination of Gaussian 16 at Thu May  6 12:44:10 2021.
