 Gaussian 16, Revision A.03,
 Gaussian 16:  EM64L-G16RevA.03 25-Dec-2016

 -------------
 #p 6-31g* mp2
 -------------

 ------------------------------------------------------
 Input file generated by CHIRIPA (05-May-2021 14:57:22)
 ------------------------------------------------------
 Symbolic Z-matrix:
 Charge =  0 Multiplicity = 1

                         Standard orientation:
 ---------------------------------------------------------------------
 Center     Atomic      Atomic             Coordinates (Angstroms)
 Number     Number       Type             X           Y           Z
 ---------------------------------------------------------------------
      1          6           0        4.854938    2.121344   -0.225597
      2          6           0        3.997239    1.957608    0.867136
      3          6           0        3.226747    0.798345    0.997514
      4          6           0        3.339239   -0.181349    0.012204
      5          6           0        4.184656   -0.047561   -1.088096
      6          6           0        4.945749    1.120002   -1.198010
      7          1           0        5.449824    3.025112   -0.318929
      8          1           0        3.924677    2.733601    1.623848
      9          1           0        2.554689    0.645691    1.833249
     10          1           0        4.235535   -0.838621   -1.826374
     11          1           0        5.611005    1.244448   -2.047712
     12          7           0        2.528529   -1.413003    0.139397
     13          8           0        2.645747   -2.261330   -0.742213
     14          8           0        1.791226   -1.506724    1.118294
     15          6           0       -1.840810   -1.870716    0.541003
     16          6           0       -2.119393   -0.886751    1.495322
     17          6           0       -3.021958    0.142460    1.211333
     18          6           0       -3.630633    0.157119   -0.042696
     19          6           0       -3.373829   -0.808794   -1.014474
     20          6           0       -2.467812   -1.828672   -0.708645
     21          1           0       -1.138335   -2.666607    0.770096
     22          1           0       -1.633937   -0.916885    2.466645
     23          1           0       -3.255940    0.916951    1.931634
     24          1           0       -3.873369   -0.752217   -1.973993
     25          1           0       -2.253380   -2.591497   -1.451721
     26          7           0       -4.587966    1.241759   -0.354902
     27          8           0       -5.111027    1.232268   -1.467086
     28          8           0       -4.797134    2.080852    0.518486
 ---------------------------------------------------------------------

 SCF Done:  E(RHF) =  -868.340541142     A.U. after   16 cycles
 E2 =    -0.2598509498D+01 EUMP2 =    -0.87093905064017D+03

 The electronic state is 1-A.
 Alpha  occ. eigenvalues --  -20.61693 -20.61683 -20.60181 -20.60175 -15.86708
 Alpha  occ. eigenvalues --  -15.85229 -11.31772 -11.30345 -11.28315 -11.28296
 Alpha  occ. eigenvalues --  -11.27982 -11.27249 -11.27238 -11.26919 -11.26915
 Alpha  occ. eigenvalues --  -11.26362 -11.25770 -11.25753  -1.60747  -1.59264
 Alpha  occ. eigenvalues --   -1.40310  -1.38825  -1.19913  -1.18482  -1.09364
 Alpha  occ. eigenvalues --   -1.07865  -1.05273  -1.03864  -0.96254  -0.94749
 Alpha  occ. eigenvalues --   -0.86685  -0.85236  -0.83101  -0.81612  -0.78180
 Alpha  occ. eigenvalues --   -0.76739  -0.72962  -0.72039  -0.71449  -0.71020
 Alpha  occ. eigenvalues --   -0.70589  -0.69443  -0.65572  -0.65274  -0.64105
 Alpha  occ. eigenvalues --   -0.63829  -0.62628  -0.61230  -0.55782  -0.54178
 Alpha  occ. eigenvalues --   -0.53612  -0.53362  -0.52195  -0.51930  -0.49716
 Alpha  occ. eigenvalues --   -0.49677  -0.48221  -0.48180  -0.45777  -0.44288
 Alpha  occ. eigenvalues --   -0.37870  -0.36860  -0.36340  -0.35500
 Alpha virt. eigenvalues --    0.04322   0.05820   0.10800   0.12183   0.15888
 Alpha virt. eigenvalues --    0.17409   0.20949   0.22523   0.26874   0.27738
 Alpha virt. eigenvalues --    0.28285   0.29531   0.30587   0.31980   0.32279

 Mulliken charges:
               1
     1  C   -0.169522
     2  C   -0.218150
     3  C   -0.169480
     4  C    0.158475
     5  C   -0.170329
     6  C   -0.218364
     7  H    0.228156
     8  H    0.225507
     9  H    0.273422
    10  H    0.275864
    11  H    0.225465
    12  N    0.490144
    13  O   -0.459979
    14  O   -0.469182
    15  C   -0.166093
    16  C   -0.219647
    17  C   -0.174104
    18  C    0.156393
    19  C   -0.172540
    20  C   -0.221919
    21  H    0.243360
    22  H    0.224272
    23  H    0.270851
    24  H    0.272225
    25  H    0.223994
    26  N    0.488316
    27  O   -0.463078
    28  O   -0.464059
 Sum of Mulliken charges =  -0.00000

 Dipole moment (field-independent basis, Debye):
    X=              6.7216    Y=              0.4052    Z=              0.6527  Tot=              6.7654
 Quadrupole moment (field-independent basis, Debye-Ang):
   XX=           -111.3358   YY=           -106.9818   ZZ=            -97.5514
   XY=             29.0816   XZ=             -7.1394   YZ=              4.1520

 Normal termination of Gaussian 16 at Thu May  6 17:53:40 2021.
