 Gaussian 16, Revision A.03,
 Gaussian 16:  EM64L-G16RevA.03 25-Dec-2016

 -------------
 #p 6-31g* mp2
 -------------

 ------------------------------------------------------
 Input file generated by CHIRIPA (05-May-2021 14:55:20)
 ------------------------------------------------------
 Symbolic Z-matrix:
 Charge =  0 Multiplicity = 1

                         Standard orientation:
 ---------------------------------------------------------------------
 Center     Atomic      Atomic             Coordinates (Angstroms)
 Number     Number       Type             X           Y           Z
 ---------------------------------------------------------------------
      1          6           0        1.331881   -1.020193    1.783785
      2          6           0        0.893976   -0.600028    0.523539
      3          6           0        1.799970   -0.081529   -0.406451
      4          6           0        3.142649    0.002884   -0.041242
      5          6           0        3.609719   -0.407418    1.206471
      6          6           0        2.685968   -0.922719    2.120635
      7          1           0        0.621186   -1.421733    2.500077
      8          1           0       -0.157031   -0.674552    0.259199
      9          1           0        1.488113    0.251090   -1.389064
     10          1           0        4.663683   -0.320749    1.441133
     11          1           0        3.028897   -1.248256    3.098628
     12          7           0        4.111183    0.550103   -1.017403
     13          8           0        5.288793    0.614020   -0.671300
     14          8           0        3.674372    0.904735   -2.110138
     15          6           0       -3.637587   -0.613139    0.005992
     16          6           0       -4.032365   -1.593128   -1.099340
     17          6           0       -3.664380   -3.039325   -0.766330
     18          1           0       -2.555791   -0.686292    0.182936
     19          1           0       -4.128398   -0.910917    0.942917
     20          1           0       -3.542053   -1.292785   -2.034221
     21          1           0       -5.113317   -1.517495   -1.273805
     22          1           0       -4.164977   -3.362502    0.152125
     23          1           0       -2.584785   -3.136515   -0.612612
     24          1           0       -3.955535   -3.722903   -1.569954
     25          6           0       -3.998950    0.836637   -0.312276
     26          6           0       -3.604172    1.816626    0.793057
     27          6           0       -3.972158    3.262823    0.460048
     28          1           0       -3.508139    1.134415   -1.249200
     29          1           0       -5.080747    0.909791   -0.489218
     30          1           0       -2.523221    1.740993    0.967522
     31          1           0       -4.094485    1.516283    1.727938
     32          1           0       -5.051752    3.360013    0.306330
     33          1           0       -3.471560    3.586000   -0.458407
     34          1           0       -3.681003    3.946401    1.263671
 ---------------------------------------------------------------------

 SCF Done:  E(RHF) =  -669.535527412     A.U. after   15 cycles
 E2 =    -0.2091275784D+01 EUMP2 =    -0.67162680319604D+03

 The electronic state is 1-A.
 Alpha  occ. eigenvalues --  -20.60762 -20.60757 -15.85815 -11.31182 -11.27756
 Alpha  occ. eigenvalues --  -11.27752 -11.27491 -11.26765 -11.26750 -11.22407
 Alpha  occ. eigenvalues --  -11.22347 -11.22273 -11.22109 -11.21821 -11.21557
 Alpha  occ. eigenvalues --   -1.59837  -1.39391  -1.19356  -1.09228  -1.08749
 Alpha  occ. eigenvalues --   -1.04762  -1.04232  -0.96685  -0.95583  -0.87695
 Alpha  occ. eigenvalues --   -0.86161  -0.82419  -0.80300  -0.79060  -0.77465
 Alpha  occ. eigenvalues --   -0.72034  -0.71161  -0.70461  -0.65919  -0.65008
 Alpha  occ. eigenvalues --   -0.64741  -0.62120  -0.61619  -0.60049  -0.58294
 Alpha  occ. eigenvalues --   -0.55988  -0.55254  -0.53338  -0.53129  -0.53088
 Alpha  occ. eigenvalues --   -0.52846  -0.50623  -0.48800  -0.48789  -0.48608
 Alpha  occ. eigenvalues --   -0.47343  -0.46578  -0.46499  -0.44796  -0.44517
 Alpha  occ. eigenvalues --   -0.37334  -0.36365
 Alpha virt. eigenvalues --    0.05073   0.11262   0.16552   0.18779   0.22760
 Alpha virt. eigenvalues --    0.23631   0.24711   0.26449   0.27299   0.28281
 Alpha virt. eigenvalues --    0.29199   0.30528   0.31164   0.31421   0.31895

 Mulliken charges:
               1
     1  C   -0.173689
     2  C   -0.228138
     3  C   -0.173633
     4  C    0.159032
     5  C   -0.171100
     6  C   -0.218622
     7  H    0.226376
     8  H    0.236971
     9  H    0.276002
    10  H    0.275610
    11  H    0.223486
    12  N    0.488032
    13  O   -0.460492
    14  O   -0.460491
    15  C   -0.304332
    16  C   -0.300124
    17  C   -0.475849
    18  H    0.141410
    19  H    0.152165
    20  H    0.153414
    21  H    0.155982
    22  H    0.156109
    23  H    0.150857
    24  H    0.164503
    25  C   -0.298595
    26  C   -0.300280
    27  C   -0.476153
    28  H    0.150807
    29  H    0.153427
    30  H    0.148683
    31  H    0.152412
    32  H    0.156702
    33  H    0.157266
    34  H    0.162252
 Sum of Mulliken charges =  -0.00000

 Dipole moment (field-independent basis, Debye):
    X=             -3.6135    Y=             -1.8975    Z=              3.4151  Tot=              5.3217
 Quadrupole moment (field-independent basis, Debye-Ang):
   XX=           -111.9996   YY=            -96.3594   ZZ=            -92.9676
   XY=             -6.3855   XZ=             13.6351   YZ=             -0.3694

 Normal termination of Gaussian 16 at Thu May  6 17:28:10 2021.
