 Gaussian 16, Revision A.03,
 Gaussian 16:  EM64L-G16RevA.03 25-Dec-2016

 -------------
 #p 6-31g* mp2
 -------------

 ------------------------------------------------------
 Input file generated by CHIRIPA (05-May-2021 14:55:19)
 ------------------------------------------------------
 Symbolic Z-matrix:
 Charge =  0 Multiplicity = 1

                         Standard orientation:
 ---------------------------------------------------------------------
 Center     Atomic      Atomic             Coordinates (Angstroms)
 Number     Number       Type             X           Y           Z
 ---------------------------------------------------------------------
      1          6           0       -3.118293    2.287614   -0.128080
      2          6           0       -4.034886    1.297223    0.240031
      3          6           0       -3.651093   -0.046577    0.278135
      4          6           0       -2.336815   -0.365853   -0.059543
      5          6           0       -1.400426    0.597972   -0.430363
      6          6           0       -1.806302    1.935448   -0.461515
      7          1           0       -3.425010    3.329054   -0.154980
      8          1           0       -5.054453    1.567797    0.499487
      9          1           0       -4.340247   -0.833534    0.559532
     10          1           0       -0.390998    0.297458   -0.683671
     11          1           0       -1.092322    2.702478   -0.747771
     12          7           0       -1.918821   -1.785126   -0.022884
     13          8           0       -0.755092   -2.040412   -0.324879
     14          8           0       -2.762842   -2.615394    0.307150
     15          6           0        2.797442   -0.513795    0.278726
     16          6           0        3.582731   -1.685101   -0.312333
     17          6           0        3.006686   -3.044164    0.086305
     18          1           0        2.787595   -0.602556    1.373700
     19          1           0        1.750945   -0.580106   -0.049668
     20          1           0        4.627741   -1.615827    0.015953
     21          1           0        3.590873   -1.593437   -1.406018
     22          1           0        1.970822   -3.138691   -0.255236
     23          1           0        3.013582   -3.161209    1.174815
     24          1           0        3.583262   -3.867328   -0.347082
     25          6           0        3.361163    0.851560   -0.110828
     26          6           0        2.575874    2.022865    0.480231
     27          6           0        3.151919    3.381929    0.081593
     28          1           0        4.407660    0.917871    0.217566
     29          1           0        3.371011    0.940321   -1.205802
     30          1           0        2.567733    1.931201    1.573916
     31          1           0        1.530865    1.953592    0.151945
     32          1           0        3.145024    3.498973   -1.006917
     33          1           0        4.187784    3.476455    0.423133
     34          1           0        2.575344    4.205092    0.514979
 ---------------------------------------------------------------------

 SCF Done:  E(RHF) =  -669.535548382     A.U. after   15 cycles
 E2 =    -0.2093674851D+01 EUMP2 =    -0.67162922323329D+03

 The electronic state is 1-A.
 Alpha  occ. eigenvalues --  -20.60963 -20.60958 -15.85996 -11.31278 -11.27843
 Alpha  occ. eigenvalues --  -11.27823 -11.27571 -11.26843 -11.26827 -11.21998
 Alpha  occ. eigenvalues --  -11.21480 -11.21387 -11.21000 -11.20940 -11.19926
 Alpha  occ. eigenvalues --   -1.60021  -1.39580  -1.19447  -1.08857  -1.08294
 Alpha  occ. eigenvalues --   -1.04841  -1.03294  -0.95715  -0.95707  -0.86731
 Alpha  occ. eigenvalues --   -0.86243  -0.82551  -0.79464  -0.78088  -0.77509
 Alpha  occ. eigenvalues --   -0.72230  -0.71329  -0.70569  -0.65110  -0.65041
 Alpha  occ. eigenvalues --   -0.64784  -0.62180  -0.60689  -0.59200  -0.57301
 Alpha  occ. eigenvalues --   -0.55352  -0.54993  -0.53170  -0.52942  -0.52439
 Alpha  occ. eigenvalues --   -0.52107  -0.49717  -0.48979  -0.48916  -0.47713
 Alpha  occ. eigenvalues --   -0.46528  -0.45540  -0.45413  -0.44875  -0.43551
 Alpha  occ. eigenvalues --   -0.37422  -0.36423
 Alpha virt. eigenvalues --    0.04896   0.11199   0.16342   0.19558   0.23241
 Alpha virt. eigenvalues --    0.24201   0.25249   0.27199   0.27429   0.28247
 Alpha virt. eigenvalues --    0.29488   0.31082   0.31682   0.31814   0.32634

 Mulliken charges:
               1
     1  C   -0.170274
     2  C   -0.219001
     3  C   -0.169628
     4  C    0.154256
     5  C   -0.171768
     6  C   -0.222809
     7  H    0.226149
     8  H    0.223816
     9  H    0.275825
    10  H    0.285306
    11  H    0.225833
    12  N    0.494323
    13  O   -0.469059
    14  O   -0.458468
    15  C   -0.310846
    16  C   -0.297506
    17  C   -0.485122
    18  H    0.149906
    19  H    0.163457
    20  H    0.147767
    21  H    0.149363
    22  H    0.183107
    23  H    0.151810
    24  H    0.155246
    25  C   -0.298784
    26  C   -0.300378
    27  C   -0.475933
    28  H    0.151030
    29  H    0.147432
    30  H    0.155860
    31  H    0.138927
    32  H    0.153903
    33  H    0.159087
    34  H    0.157172
 Sum of Mulliken charges =  -0.00000

 Dipole moment (field-independent basis, Debye):
    X=             -1.6338    Y=              4.8436    Z=             -0.0985  Tot=              5.1127
 Quadrupole moment (field-independent basis, Debye-Ang):
   XX=            -83.6641   YY=            -99.6959   ZZ=            -94.5416
   XY=            -10.1764   XZ=             -0.5325   YZ=             -0.4132

 Normal termination of Gaussian 16 at Thu May  6 19:03:49 2021.
