 Gaussian 16, Revision A.03,
 Gaussian 16:  EM64L-G16RevA.03 25-Dec-2016

 -------------
 #p 6-31g* mp2
 -------------

 ------------------------------------------------------
 Input file generated by CHIRIPA (05-May-2021 14:51:12)
 ------------------------------------------------------
 Symbolic Z-matrix:
 Charge =  0 Multiplicity = 1

                         Standard orientation:
 ---------------------------------------------------------------------
 Center     Atomic      Atomic             Coordinates (Angstroms)
 Number     Number       Type             X           Y           Z
 ---------------------------------------------------------------------
      1          6           0        2.380475   -0.434136   -0.567772
      2          6           0        2.975763   -1.726355   -1.127940
      3          6           0        1.908815   -2.757937   -1.495706
      4          1           0        1.775974   -0.670483    0.318605
      5          1           0        1.693122   -0.003732   -1.309185
      6          1           0        3.662845   -2.153465   -0.386245
      7          1           0        3.579073   -1.486880   -2.012974
      8          1           0        1.228591   -2.355327   -2.253203
      9          1           0        1.312839   -3.025699   -0.617231
     10          1           0        2.356352   -3.673842   -1.894063
     11          6           0        3.434646    0.606937   -0.195458
     12          6           0        2.839358    1.899156    0.364709
     13          6           0        3.906307    2.930738    0.732476
     14          1           0        4.121999    0.176533    0.545955
     15          1           0        4.039147    0.843284   -1.081835
     16          1           0        2.236048    1.659681    1.249744
     17          1           0        2.152276    2.326266   -0.376985
     18          1           0        4.502282    3.198500   -0.145999
     19          1           0        4.586530    2.528128    1.489973
     20          1           0        3.458769    3.846643    1.130833
     21          6           0       -3.498841   -0.029729   -0.098601
     22          6           0       -3.763767    1.401161   -0.568020
     23          6           0       -4.949694    1.498298   -1.528193
     24          1           0       -3.317029   -0.668268   -0.973906
     25          1           0       -4.401429   -0.420518    0.391313
     26          1           0       -2.860491    1.789621   -1.055674
     27          1           0       -3.944780    2.036405    0.308516
     28          1           0       -5.864660    1.136335   -1.048173
     29          1           0       -4.774211    0.888148   -2.420114
     30          1           0       -5.121289    2.529845   -1.851189
     31          6           0       -2.316279   -0.143072    0.861831
     32          6           0       -2.051355   -1.573962    1.331250
     33          6           0       -0.865427   -1.671100    2.291424
     34          1           0       -1.413693    0.247718    0.371917
     35          1           0       -2.498091    0.495466    1.737136
     36          1           0       -1.870341   -2.209207    0.454714
     37          1           0       -2.954630   -1.962422    1.818904
     38          1           0       -1.040911   -1.060949    3.183344
     39          1           0        0.049539   -1.309136    1.811403
     40          1           0       -0.693832   -2.702646    2.614420
 ---------------------------------------------------------------------

 SCF Done:  E(RHF) =  -470.733428803     A.U. after   11 cycles
 E2 =    -0.1583260060D+01 EUMP2 =    -0.47231668886277D+03

 The electronic state is 1-A.
 Alpha  occ. eigenvalues --  -11.21647 -11.21625 -11.21586 -11.21584 -11.21455
 Alpha  occ. eigenvalues --  -11.21392 -11.21374 -11.21313 -11.21112 -11.21084
 Alpha  occ. eigenvalues --  -11.21081 -11.21060  -1.08479  -1.08405  -1.03566
 Alpha  occ. eigenvalues --   -1.03516  -0.96016  -0.95971  -0.87035  -0.86986
 Alpha  occ. eigenvalues --   -0.79634  -0.79576  -0.78327  -0.78186  -0.65166
 Alpha  occ. eigenvalues --   -0.64990  -0.61031  -0.60851  -0.59380  -0.59338
 Alpha  occ. eigenvalues --   -0.57653  -0.57557  -0.55355  -0.55221  -0.52705
 Alpha  occ. eigenvalues --   -0.52669  -0.52477  -0.52370  -0.50034  -0.49863
 Alpha  occ. eigenvalues --   -0.48000  -0.47869  -0.46741  -0.46596  -0.45978
 Alpha  occ. eigenvalues --   -0.45760  -0.45721  -0.45406  -0.43822  -0.43770
 Alpha virt. eigenvalues --    0.20239   0.23263   0.23593   0.24736   0.25578
 Alpha virt. eigenvalues --    0.26146   0.26777   0.27932   0.28440   0.29323
 Alpha virt. eigenvalues --    0.30950   0.31635   0.31768   0.31800   0.31942

 Mulliken charges:
               1
     1  C   -0.308557
     2  C   -0.298984
     3  C   -0.477481
     4  H    0.158690
     5  H    0.149157
     6  H    0.152250
     7  H    0.152216
     8  H    0.154722
     9  H    0.156870
    10  H    0.160620
    11  C   -0.297562
    12  C   -0.300127
    13  C   -0.475727
    14  H    0.149791
    15  H    0.149870
    16  H    0.152445
    17  H    0.151727
    18  H    0.155182
    19  H    0.155336
    20  H    0.160466
    21  C   -0.298341
    22  C   -0.299589
    23  C   -0.475692
    24  H    0.149756
    25  H    0.149397
    26  H    0.151852
    27  H    0.151908
    28  H    0.155177
    29  H    0.155111
    30  H    0.160148
    31  C   -0.299731
    32  C   -0.299510
    33  C   -0.483845
    34  H    0.151541
    35  H    0.149301
    36  H    0.152855
    37  H    0.151897
    38  H    0.155315
    39  H    0.161442
    40  H    0.160104
 Sum of Mulliken charges =  -0.00000

 Dipole moment (field-independent basis, Debye):
    X=              0.0250    Y=              0.0019    Z=             -0.0022  Tot=              0.0252
 Quadrupole moment (field-independent basis, Debye-Ang):
   XX=            -85.4674   YY=            -85.3867   ZZ=            -83.8705
   XY=             -0.4795   XZ=             -1.2349   YZ=             -0.3244

 Normal termination of Gaussian 16 at Wed May  5 15:16:36 2021.
