 Gaussian 16, Revision A.03,
 Gaussian 16:  EM64L-G16RevA.03 25-Dec-2016

 -------------
 #p 6-31g* mp2
 -------------

 ------------------------------------------------------
 Input file generated by CHIRIPA (05-May-2021 14:53:12)
 ------------------------------------------------------
 Symbolic Z-matrix:
 Charge =  0 Multiplicity = 1

                         Standard orientation:
 ---------------------------------------------------------------------
 Center     Atomic      Atomic             Coordinates (Angstroms)
 Number     Number       Type             X           Y           Z
 ---------------------------------------------------------------------
      1          6           0       -3.402676   -0.272711    0.333019
      2          6           0       -3.780769   -1.493117   -0.507005
      3          6           0       -4.518417   -2.561305    0.300858
      4          1           0       -2.775725   -0.595377    1.175494
      5          1           0       -4.313682    0.160050    0.769119
      6          1           0       -2.869467   -1.922627   -0.942513
      7          1           0       -4.406735   -1.167481   -1.347685
      8          1           0       -5.443238   -2.154885    0.722911
      9          1           0       -3.897237   -2.914321    1.130386
     10          1           0       -4.779166   -3.424751   -0.319087
     11          6           0       -2.664627    0.803929   -0.460616
     12          6           0       -2.286534    2.024335    0.379408
     13          6           0       -1.548886    3.092524   -0.428455
     14          1           0       -1.753621    0.371169   -0.896715
     15          1           0       -3.291578    1.126596   -1.303090
     16          1           0       -1.660568    1.698700    1.220089
     17          1           0       -3.197835    2.453846    0.814916
     18          1           0       -2.170066    3.445540   -1.257983
     19          1           0       -0.624064    2.686104   -0.850508
     20          1           0       -1.288136    3.955970    0.191490
     21          6           0        2.529702   -0.430005   -2.458329
     22          6           0        1.952488    0.711400   -1.892166
     23          6           0        1.858742    0.845381   -0.503710
     24          6           0        2.354605   -0.185997    0.292324
     25          6           0        2.935137   -1.335366   -0.241739
     26          6           0        3.018321   -1.447951   -1.632765
     27          1           0        2.598424   -0.525774   -3.537913
     28          1           0        1.572183    1.503539   -2.530860
     29          1           0        1.416683    1.718289   -0.038915
     30          1           0        3.305435   -2.108272    0.420767
     31          1           0        3.467096   -2.335505   -2.069678
     32          7           0        2.260950   -0.055484    1.763580
     33          8           0        2.705242   -0.978259    2.443084
     34          8           0        1.745024    0.967118    2.209387
 ---------------------------------------------------------------------

 SCF Done:  E(RHF) =  -669.535732645     A.U. after   15 cycles
 E2 =    -0.2092227997D+01 EUMP2 =    -0.67162796064233D+03

 The electronic state is 1-A.
 Alpha  occ. eigenvalues --  -20.60856 -20.60851 -15.85902 -11.31250 -11.27826
 Alpha  occ. eigenvalues --  -11.27800 -11.27562 -11.26840 -11.26830 -11.21590
 Alpha  occ. eigenvalues --  -11.21582 -11.21430 -11.21414 -11.21299 -11.21016
 Alpha  occ. eigenvalues --   -1.59926  -1.39479  -1.19429  -1.08824  -1.08437
 Alpha  occ. eigenvalues --   -1.04834  -1.03581  -0.96063  -0.95659  -0.87081
 Alpha  occ. eigenvalues --   -0.86224  -0.82496  -0.79635  -0.78236  -0.77544
 Alpha  occ. eigenvalues --   -0.72120  -0.71247  -0.70543  -0.65123  -0.65061
 Alpha  occ. eigenvalues --   -0.64807  -0.62253  -0.60922  -0.59409  -0.57649
 Alpha  occ. eigenvalues --   -0.55479  -0.55219  -0.53158  -0.52914  -0.52747
 Alpha  occ. eigenvalues --   -0.52478  -0.50008  -0.48877  -0.48874  -0.47956
 Alpha  occ. eigenvalues --   -0.46649  -0.45789  -0.45688  -0.44878  -0.43816
 Alpha  occ. eigenvalues --   -0.37406  -0.36414
 Alpha virt. eigenvalues --    0.04943   0.11201   0.16378   0.20219   0.22956
 Alpha virt. eigenvalues --    0.24003   0.25900   0.26968   0.27501   0.27987
 Alpha virt. eigenvalues --    0.29257   0.30225   0.31615   0.31678   0.32211

 Mulliken charges:
               1
     1  C   -0.299221
     2  C   -0.299458
     3  C   -0.475953
     4  H    0.154517
     5  H    0.150140
     6  H    0.150551
     7  H    0.150403
     8  H    0.155608
     9  H    0.157324
    10  H    0.159127
    11  C   -0.299629
    12  C   -0.304443
    13  C   -0.476801
    14  H    0.147387
    15  H    0.147279
    16  H    0.165291
    17  H    0.153858
    18  H    0.155322
    19  H    0.140689
    20  H    0.165394
    21  C   -0.170701
    22  C   -0.220381
    23  C   -0.175041
    24  C    0.158195
    25  C   -0.170795
    26  C   -0.218669
    27  H    0.226137
    28  H    0.225113
    29  H    0.281774
    30  H    0.275756
    31  H    0.223818
    32  N    0.488145
    33  O   -0.459858
    34  O   -0.460875
 Sum of Mulliken charges =  -0.00000

 Dipole moment (field-independent basis, Debye):
    X=              0.3262    Y=             -0.4842    Z=             -5.0657  Tot=              5.0992
 Quadrupole moment (field-independent basis, Debye-Ang):
   XX=            -92.2631   YY=            -91.3378   ZZ=            -98.4537
   XY=             -4.4671   XZ=            -11.8862   YZ=              0.7698

 Normal termination of Gaussian 16 at Wed May  5 15:30:56 2021.
