 Gaussian 16, Revision A.03,
 Gaussian 16:  EM64L-G16RevA.03 25-Dec-2016

 -------------
 #p 6-31g* mp2
 -------------

 ------------------------------------------------------
 Input file generated by CHIRIPA (05-May-2021 14:51:08)
 ------------------------------------------------------
 Symbolic Z-matrix:
 Charge =  0 Multiplicity = 1

                         Standard orientation:
 ---------------------------------------------------------------------
 Center     Atomic      Atomic             Coordinates (Angstroms)
 Number     Number       Type             X           Y           Z
 ---------------------------------------------------------------------
      1          6           0        1.360573   -1.771062   -0.265669
      2          6           0        0.610846   -2.568253    0.802217
      3          6           0       -0.424672   -3.523698    0.208400
      4          1           0        0.636659   -1.202697   -0.865548
      5          1           0        1.856770   -2.469455   -0.953733
      6          1           0        0.117351   -1.868549    1.488871
      7          1           0        1.336646   -3.134637    1.399746
      8          1           0        0.055539   -4.244329   -0.461443
      9          1           0       -1.170683   -2.971047   -0.371812
     10          1           0       -0.948811   -4.083437    0.989316
     11          6           0        2.399216   -0.811500    0.312423
     12          6           0        3.148943   -0.014309   -0.755464
     13          6           0        4.184462    0.941136   -0.161647
     14          1           0        1.903020   -0.113107    1.000486
     15          1           0        3.123130   -1.379865    0.912301
     16          1           0        2.423144    0.552075   -1.352993
     17          1           0        3.642439   -0.714013   -1.442118
     18          1           0        4.930473    0.388485    0.418565
     19          1           0        3.704251    1.661767    0.508197
     20          1           0        4.708601    1.500875   -0.942563
     21          6           0       -1.457541    1.857531   -0.313911
     22          6           0       -0.860125    2.776757    0.751970
     23          6           0       -0.017813    3.904653    0.155183
     24          1           0       -0.645213    1.430376   -0.917738
     25          1           0       -2.075290    2.454794   -0.998790
     26          1           0       -0.244800    2.177717    1.435448
     27          1           0       -1.673957    3.201624    1.353451
     28          1           0       -0.623795    4.526671   -0.511511
     29          1           0        0.813483    3.496947   -0.429048
     30          1           0        0.399561    4.549643    0.934700
     31          6           0       -2.302249    0.725032    0.267158
     32          6           0       -2.899666   -0.194195   -0.798723
     33          6           0       -3.741977   -1.322092   -0.201936
     34          1           0       -1.684500    0.127768    0.952037
     35          1           0       -3.114577    1.152186    0.870983
     36          1           0       -2.085832   -0.619062   -1.400204
     37          1           0       -3.514990    0.404846   -1.482202
     38          1           0       -4.573272   -0.914385    0.382294
     39          1           0       -3.135995   -1.944110    0.464758
     40          1           0       -4.159350   -1.967081   -0.981453
 ---------------------------------------------------------------------

 SCF Done:  E(RHF) =  -470.732708184     A.U. after   11 cycles
 E2 =    -0.1585688667D+01 EUMP2 =    -0.47231839685060D+03

 The electronic state is 1-A.
 Alpha  occ. eigenvalues --  -11.21678 -11.21672 -11.21668 -11.21666 -11.21478
 Alpha  occ. eigenvalues --  -11.21478 -11.21419 -11.21418 -11.21129 -11.21113
 Alpha  occ. eigenvalues --  -11.21066 -11.21050  -1.08561  -1.08443  -1.03658
 Alpha  occ. eigenvalues --   -1.03524  -0.96109  -0.95961  -0.87129  -0.86971
 Alpha  occ. eigenvalues --   -0.79657  -0.79650  -0.78402  -0.78233  -0.65625
 Alpha  occ. eigenvalues --   -0.64681  -0.61458  -0.60546  -0.59431  -0.59371
 Alpha  occ. eigenvalues --   -0.57671  -0.57620  -0.55755  -0.54922  -0.52741
 Alpha  occ. eigenvalues --   -0.52710  -0.52457  -0.52439  -0.50305  -0.49617
 Alpha  occ. eigenvalues --   -0.48074  -0.47854  -0.46738  -0.46615  -0.46175
 Alpha  occ. eigenvalues --   -0.46038  -0.45618  -0.45389  -0.43854  -0.43832
 Alpha virt. eigenvalues --    0.17688   0.20922   0.23613   0.24748   0.25108
 Alpha virt. eigenvalues --    0.25923   0.26534   0.28969   0.29219   0.29483
 Alpha virt. eigenvalues --    0.30346   0.31498   0.31663   0.31957   0.32303

 Mulliken charges:
               1
     1  C   -0.303056
     2  C   -0.302235
     3  C   -0.482936
     4  H    0.153341
     5  H    0.150139
     6  H    0.153099
     7  H    0.152669
     8  H    0.155411
     9  H    0.163955
    10  H    0.159963
    11  C   -0.299476
    12  C   -0.300911
    13  C   -0.476330
    14  H    0.150280
    15  H    0.150247
    16  H    0.152054
    17  H    0.152396
    18  H    0.155437
    19  H    0.155901
    20  H    0.160587
    21  C   -0.300973
    22  C   -0.300605
    23  C   -0.476719
    24  H    0.151299
    25  H    0.150100
    26  H    0.152071
    27  H    0.152453
    28  H    0.155578
    29  H    0.155876
    30  H    0.160591
    31  C   -0.301822
    32  C   -0.304008
    33  C   -0.480461
    34  H    0.152836
    35  H    0.150402
    36  H    0.153540
    37  H    0.152846
    38  H    0.155482
    39  H    0.160642
    40  H    0.160338
 Sum of Mulliken charges =  -0.00000

 Dipole moment (field-independent basis, Debye):
    X=             -0.0072    Y=             -0.0058    Z=             -0.0005  Tot=              0.0093
 Quadrupole moment (field-independent basis, Debye-Ang):
   XX=            -84.5023   YY=            -85.0871   ZZ=            -84.9464
   XY=             -2.1559   XZ=             -0.0509   YZ=              0.0634

 Normal termination of Gaussian 16 at Thu May  6 06:52:40 2021.
