 Gaussian 16, Revision A.03,
 Gaussian 16:  EM64L-G16RevA.03 25-Dec-2016

 -------------
 #p 6-31g* mp2
 -------------

 ------------------------------------------------------
 Input file generated by CHIRIPA (05-May-2021 14:55:25)
 ------------------------------------------------------
 Symbolic Z-matrix:
 Charge =  0 Multiplicity = 1

                         Standard orientation:
 ---------------------------------------------------------------------
 Center     Atomic      Atomic             Coordinates (Angstroms)
 Number     Number       Type             X           Y           Z
 ---------------------------------------------------------------------
      1          6           0       -4.504472   -1.847046   -0.707092
      2          6           0       -3.184780   -1.953680   -0.255912
      3          6           0       -2.451871   -0.809193    0.072027
      4          6           0       -3.072637    0.431583   -0.063672
      5          6           0       -4.385775    0.570514   -0.510501
      6          6           0       -5.099708   -0.587510   -0.832725
      7          1           0       -5.066442   -2.741369   -0.959623
      8          1           0       -2.719948   -2.930545   -0.157370
      9          1           0       -1.428707   -0.862902    0.423692
     10          1           0       -4.822131    1.558073   -0.598472
     11          1           0       -6.124441   -0.501673   -1.182868
     12          7           0       -2.306784    1.650365    0.280477
     13          8           0       -2.876484    2.731864    0.152263
     14          8           0       -1.151309    1.501070    0.671919
     15          6           0        3.611133   -0.818399    0.430018
     16          6           0        2.318880   -0.217405    0.983982
     17          6           0        1.361966   -1.276380    1.532324
     18          1           0        3.363287   -1.536735   -0.363398
     19          1           0        4.111333   -1.389976    1.224056
     20          1           0        1.821965    0.354016    0.189520
     21          1           0        2.569843    0.499726    1.776041
     22          1           0        1.834857   -1.840163    2.342957
     23          1           0        1.082731   -1.986701    0.747421
     24          1           0        0.444798   -0.824854    1.923203
     25          6           0        4.577946    0.227775   -0.121815
     26          6           0        5.870198   -0.373220   -0.675778
     27          6           0        6.827113    0.685755   -1.224121
     28          1           0        4.077745    0.799352   -0.915851
     29          1           0        4.825792    0.946111    0.671602
     30          1           0        5.619236   -1.090350   -1.467838
     31          1           0        6.367113   -0.944641    0.118684
     32          1           0        7.106348    1.396076   -0.439218
     33          1           0        6.354222    1.249538   -2.034753
     34          1           0        7.744281    0.234230   -1.615000
 ---------------------------------------------------------------------

 SCF Done:  E(RHF) =  -669.535783620     A.U. after   15 cycles
 E2 =    -0.2091852883D+01 EUMP2 =    -0.67162763650348D+03

 The electronic state is 1-A.
 Alpha  occ. eigenvalues --  -20.60844 -20.60833 -15.85879 -11.31179 -11.27761
 Alpha  occ. eigenvalues --  -11.27688 -11.27499 -11.26768 -11.26744 -11.21312
 Alpha  occ. eigenvalues --  -11.21060 -11.21016 -11.20968 -11.20941 -11.20794
 Alpha  occ. eigenvalues --   -1.59908  -1.39464  -1.19356  -1.08767  -1.08059
 Alpha  occ. eigenvalues --   -1.04751  -1.03197  -0.95735  -0.95580  -0.86745
 Alpha  occ. eigenvalues --   -0.86147  -0.82442  -0.79248  -0.77846  -0.77497
 Alpha  occ. eigenvalues --   -0.72105  -0.71224  -0.70474  -0.65013  -0.64799
 Alpha  occ. eigenvalues --   -0.64667  -0.62147  -0.60589  -0.59024  -0.57264
 Alpha  occ. eigenvalues --   -0.55296  -0.54995  -0.53088  -0.52925  -0.52303
 Alpha  occ. eigenvalues --   -0.52110  -0.49656  -0.48854  -0.48851  -0.47561
 Alpha  occ. eigenvalues --   -0.46264  -0.45410  -0.45318  -0.44858  -0.43446
 Alpha  occ. eigenvalues --   -0.37345  -0.36352
 Alpha virt. eigenvalues --    0.05006   0.11279   0.16512   0.20835   0.23194
 Alpha virt. eigenvalues --    0.24203   0.26749   0.27233   0.27649   0.28025
 Alpha virt. eigenvalues --    0.29641   0.30815   0.31717   0.31747   0.32278

 Mulliken charges:
               1
     1  C   -0.170195
     2  C   -0.223204
     3  C   -0.177893
     4  C    0.154883
     5  C   -0.169833
     6  C   -0.219271
     7  H    0.225587
     8  H    0.224209
     9  H    0.292160
    10  H    0.275438
    11  H    0.223358
    12  N    0.489158
    13  O   -0.459500
    14  O   -0.464397
    15  C   -0.298927
    16  C   -0.298916
    17  C   -0.487223
    18  H    0.145717
    19  H    0.147181
    20  H    0.165416
    21  H    0.156492
    22  H    0.155639
    23  H    0.143010
    24  H    0.170240
    25  C   -0.298266
    26  C   -0.299256
    27  C   -0.475552
    28  H    0.151553
    29  H    0.151106
    30  H    0.150271
    31  H    0.150859
    32  H    0.155669
    33  H    0.155619
    34  H    0.158868
 Sum of Mulliken charges =  -0.00000

 Dipole moment (field-independent basis, Debye):
    X=             -2.7392    Y=             -4.1321    Z=             -1.1817  Tot=              5.0965
 Quadrupole moment (field-independent basis, Debye-Ang):
   XX=            -76.0656   YY=            -97.9683   ZZ=            -94.4705
   XY=              9.5761   XZ=              5.9686   YZ=             -0.5215

 Normal termination of Gaussian 16 at Thu May  6 17:44:37 2021.
