 Gaussian 16, Revision A.03,
 Gaussian 16:  EM64L-G16RevA.03 25-Dec-2016

 -------------
 #p 6-31g* mp2
 -------------

 ------------------------------------------------------
 Input file generated by CHIRIPA (05-May-2021 14:51:11)
 ------------------------------------------------------
 Symbolic Z-matrix:
 Charge =  0 Multiplicity = 1

                         Standard orientation:
 ---------------------------------------------------------------------
 Center     Atomic      Atomic             Coordinates (Angstroms)
 Number     Number       Type             X           Y           Z
 ---------------------------------------------------------------------
      1          6           0       -2.715222   -0.934365    0.706887
      2          6           0       -1.203910   -0.774724    0.538262
      3          6           0       -0.406498   -1.566618    1.575004
      4          1           0       -3.001268   -0.610668    1.717007
      5          1           0       -2.974674   -1.999678    0.634849
      6          1           0       -0.947555    0.290106    0.609216
      7          1           0       -0.921455   -1.098660   -0.471640
      8          1           0       -0.633252   -2.635151    1.501381
      9          1           0       -0.659501   -1.238494    2.588377
     10          1           0        0.671489   -1.438202    1.436035
     11          6           0       -3.525963   -0.148655   -0.322232
     12          6           0       -5.037276   -0.308296   -0.153607
     13          6           0       -5.834688    0.483598   -1.190348
     14          1           0       -3.266512    0.916658   -0.250194
     15          1           0       -3.239918   -0.472353   -1.332352
     16          1           0       -5.319730    0.015639    0.856295
     17          1           0       -5.293630   -1.373127   -0.224561
     18          1           0       -5.581685    0.155474   -2.203722
     19          1           0       -5.607933    1.552131   -1.116725
     20          1           0       -6.912675    0.355181   -1.051380
     21          6           0        3.774201    0.148191   -0.153232
     22          6           0        3.689877   -1.233956   -0.801726
     23          6           0        5.005248   -2.008654   -0.715481
     24          1           0        4.573727    0.725311   -0.637622
     25          1           0        4.065244    0.034135    0.900181
     26          1           0        3.397733   -1.117414   -1.853242
     27          1           0        2.890331   -1.807786   -0.315865
     28          1           0        5.298767   -2.154309    0.329139
     29          1           0        5.809052   -1.460014   -1.216973
     30          1           0        4.922523   -2.993756   -1.185152
     31          6           0        2.466985    0.934830   -0.231423
     32          6           0        2.551309    2.316976    0.417071
     33          6           0        1.235937    3.091674    0.330826
     34          1           0        2.175942    1.048886   -1.284837
     35          1           0        1.667458    0.357709    0.252967
     36          1           0        3.350855    2.890806   -0.068791
     37          1           0        2.843452    2.200434    1.468588
     38          1           0        0.432133    2.543035    0.832318
     39          1           0        0.942418    3.237329   -0.713795
     40          1           0        1.318663    4.076775    0.800497
 ---------------------------------------------------------------------

 SCF Done:  E(RHF) =  -470.732675408     A.U. after   11 cycles
 E2 =    -0.1584165773D+01 EUMP2 =    -0.47231684118152D+03

 The electronic state is 1-A.
 Alpha  occ. eigenvalues --  -11.21621 -11.21602 -11.21601 -11.21585 -11.21417
 Alpha  occ. eigenvalues --  -11.21368 -11.21354 -11.21279 -11.21137 -11.21084
 Alpha  occ. eigenvalues --  -11.21068 -11.21066  -1.08469  -1.08393  -1.03572
 Alpha  occ. eigenvalues --   -1.03511  -0.96031  -0.95953  -0.87032  -0.86982
 Alpha  occ. eigenvalues --   -0.79673  -0.79540  -0.78355  -0.78128  -0.65150
 Alpha  occ. eigenvalues --   -0.65019  -0.61056  -0.60830  -0.59419  -0.59315
 Alpha  occ. eigenvalues --   -0.57729  -0.57500  -0.55292  -0.55259  -0.52748
 Alpha  occ. eigenvalues --   -0.52646  -0.52495  -0.52335  -0.49984  -0.49878
 Alpha  occ. eigenvalues --   -0.48053  -0.47814  -0.46770  -0.46525  -0.45935
 Alpha  occ. eigenvalues --   -0.45755  -0.45694  -0.45419  -0.43808  -0.43761
 Alpha virt. eigenvalues --    0.20444   0.22662   0.23458   0.24358   0.26004
 Alpha virt. eigenvalues --    0.26200   0.26913   0.27300   0.28555   0.29491
 Alpha virt. eigenvalues --    0.30223   0.31368   0.31752   0.31832   0.32312

 Mulliken charges:
               1
     1  C   -0.298056
     2  C   -0.305382
     3  C   -0.482224
     4  H    0.149507
     5  H    0.149597
     6  H    0.156660
     7  H    0.153414
     8  H    0.156137
     9  H    0.155329
    10  H    0.163879
    11  C   -0.298422
    12  C   -0.299682
    13  C   -0.475732
    14  H    0.149929
    15  H    0.149789
    16  H    0.151924
    17  H    0.151896
    18  H    0.155178
    19  H    0.155341
    20  H    0.160240
    21  C   -0.297698
    22  C   -0.302541
    23  C   -0.475553
    24  H    0.149658
    25  H    0.148994
    26  H    0.152019
    27  H    0.153770
    28  H    0.155238
    29  H    0.155263
    30  H    0.160220
    31  C   -0.309731
    32  C   -0.299023
    33  C   -0.479053
    34  H    0.149199
    35  H    0.163226
    36  H    0.151872
    37  H    0.151556
    38  H    0.157517
    39  H    0.155512
    40  H    0.160233
 Sum of Mulliken charges =  -0.00000

 Dipole moment (field-independent basis, Debye):
    X=             -0.0233    Y=             -0.0056    Z=             -0.0082  Tot=              0.0253
 Quadrupole moment (field-independent basis, Debye-Ang):
   XX=            -86.0780   YY=            -84.7397   ZZ=            -84.0517
   XY=              1.0492   XZ=             -0.7360   YZ=              0.5029

 Normal termination of Gaussian 16 at Thu May  6 00:41:59 2021.
