 Gaussian 16, Revision A.03,
 Gaussian 16:  EM64L-G16RevA.03 25-Dec-2016

 -------------
 #p 6-31g* mp2
 -------------

 ------------------------------------------------------
 Input file generated by CHIRIPA (05-May-2021 14:57:22)
 ------------------------------------------------------
 Symbolic Z-matrix:
 Charge =  0 Multiplicity = 1

                         Standard orientation:
 ---------------------------------------------------------------------
 Center     Atomic      Atomic             Coordinates (Angstroms)
 Number     Number       Type             X           Y           Z
 ---------------------------------------------------------------------
      1          6           0        5.074829    1.659550    0.412599
      2          6           0        3.751727    1.911564    0.035225
      3          6           0        2.863372    0.855216   -0.187265
      4          6           0        3.333858   -0.446626   -0.022525
      5          6           0        4.646202   -0.730014    0.352621
      6          6           0        5.517064    0.341888    0.569815
      7          1           0        5.758130    2.486187    0.583377
      8          1           0        3.405518    2.933862   -0.087620
      9          1           0        1.833868    1.021817   -0.480156
     10          1           0        4.962203   -1.759789    0.467185
     11          1           0        6.544057    0.143183    0.862810
     12          7           0        2.402655   -1.573167   -0.255263
     13          8           0        2.841737   -2.711060   -0.103461
     14          8           0        1.251330   -1.296926   -0.585077
     15          6           0       -4.462692   -2.035034    0.362337
     16          6           0       -5.128376   -0.903503    0.845060
     17          6           0       -4.597221    0.373573    0.641345
     18          6           0       -3.393037    0.482927   -0.052393
     19          6           0       -2.706091   -0.625295   -0.545585
     20          6           0       -3.255801   -1.892571   -0.330225
     21          1           0       -4.882513   -3.023292    0.525110
     22          1           0       -6.065824   -1.011129    1.383255
     23          1           0       -5.091653    1.266465    1.004250
     24          1           0       -1.773282   -0.486251   -1.078459
     25          1           0       -2.736629   -2.769561   -0.706247
     26          7           0       -2.820905    1.829721   -0.274221
     27          8           0       -1.758594    1.899250   -0.888467
     28          8           0       -3.445612    2.790309    0.170357
 ---------------------------------------------------------------------

 SCF Done:  E(RHF) =  -868.340989699     A.U. after   16 cycles
 E2 =    -0.2598131343D+01 EUMP2 =    -0.87093912104195D+03

 The electronic state is 1-A.
 Alpha  occ. eigenvalues --  -20.60911 -20.60890 -20.60440 -20.60420 -15.85946
 Alpha  occ. eigenvalues --  -15.85472 -11.30996 -11.30517 -11.27589 -11.27436
 Alpha  occ. eigenvalues --  -11.27264 -11.27145 -11.26915 -11.26809 -11.26549
 Alpha  occ. eigenvalues --  -11.26431 -11.26114 -11.25919  -1.59971  -1.59506
 Alpha  occ. eigenvalues --   -1.39532  -1.39067  -1.19154  -1.18682  -1.08616
 Alpha  occ. eigenvalues --   -1.08152  -1.04500  -1.04017  -0.95496  -0.95026
 Alpha  occ. eigenvalues --   -0.85919  -0.85445  -0.82337  -0.81858  -0.77405
 Alpha  occ. eigenvalues --   -0.76919  -0.72197  -0.71706  -0.71274  -0.70816
 Alpha  occ. eigenvalues --   -0.70262  -0.69792  -0.64812  -0.64499  -0.64335
 Alpha  occ. eigenvalues --   -0.64016  -0.61830  -0.61340  -0.55040  -0.54580
 Alpha  occ. eigenvalues --   -0.52867  -0.52579  -0.52398  -0.52093  -0.48934
 Alpha  occ. eigenvalues --   -0.48908  -0.48458  -0.48433  -0.45004  -0.44542
 Alpha  occ. eigenvalues --   -0.37144  -0.36691  -0.36094  -0.35607
 Alpha virt. eigenvalues --    0.05095   0.05558   0.11557   0.12033   0.16644
 Alpha virt. eigenvalues --    0.17093   0.21582   0.22250   0.27444   0.27878
 Alpha virt. eigenvalues --    0.28412   0.29338   0.31118   0.31740   0.32384

 Mulliken charges:
               1
     1  C   -0.170265
     2  C   -0.219910
     3  C   -0.173366
     4  C    0.156338
     5  C   -0.171334
     6  C   -0.219207
     7  H    0.225749
     8  H    0.228773
     9  H    0.287105
    10  H    0.273698
    11  H    0.222389
    12  N    0.492712
    13  O   -0.461447
    14  O   -0.470600
    15  C   -0.170819
    16  C   -0.219653
    17  C   -0.171953
    18  C    0.155343
    19  C   -0.171422
    20  C   -0.220280
    21  H    0.224247
    22  H    0.220516
    23  H    0.272260
    24  H    0.290271
    25  H    0.230890
    26  N    0.488812
    27  O   -0.465770
    28  O   -0.463075
 Sum of Mulliken charges =  -0.00000

 Dipole moment (field-independent basis, Debye):
    X=              1.4359    Y=             -0.8058    Z=              1.5344  Tot=              2.2507
 Quadrupole moment (field-independent basis, Debye-Ang):
   XX=            -65.1336   YY=           -110.8365   ZZ=           -105.0759
   XY=             23.5383   XZ=             -0.9218   YZ=              0.5634

 Normal termination of Gaussian 16 at Wed May  5 20:57:37 2021.
