 Gaussian 16, Revision A.03,
 Gaussian 16:  EM64L-G16RevA.03 25-Dec-2016

 -------------
 #p 6-31g* mp2
 -------------

 ------------------------------------------------------
 Input file generated by CHIRIPA (05-May-2021 14:55:21)
 ------------------------------------------------------
 Symbolic Z-matrix:
 Charge =  0 Multiplicity = 1

                         Standard orientation:
 ---------------------------------------------------------------------
 Center     Atomic      Atomic             Coordinates (Angstroms)
 Number     Number       Type             X           Y           Z
 ---------------------------------------------------------------------
      1          6           0        1.325192    1.226748   -0.240828
      2          6           0        1.452366   -0.140098   -0.509304
      3          6           0        2.707051   -0.756018   -0.478395
      4          6           0        3.818412    0.028547   -0.174053
      5          6           0        3.724161    1.392510    0.097999
      6          6           0        2.459496    1.987349    0.061434
      7          1           0        0.346646    1.697021   -0.267036
      8          1           0        0.573187   -0.733266   -0.744339
      9          1           0        2.834142   -1.812296   -0.682214
     10          1           0        4.618867    1.957730    0.329184
     11          1           0        2.363733    3.049057    0.270358
     12          7           0        5.151974   -0.612340   -0.138337
     13          8           0        6.115637    0.100881    0.132413
     14          8           0        5.208305   -1.815754   -0.381770
     15          6           0       -5.087180   -0.000023   -0.337693
     16          6           0       -6.556150   -0.223392    0.023164
     17          6           0       -7.506027    0.124554   -1.123336
     18          1           0       -4.943316    1.049366   -0.629297
     19          1           0       -4.837068   -0.606492   -1.219187
     20          1           0       -6.803050    0.382258    0.904552
     21          1           0       -6.696495   -1.272325    0.314127
     22          1           0       -7.288098   -0.488631   -2.003740
     23          1           0       -7.395257    1.175353   -1.409960
     24          1           0       -8.550910   -0.042504   -0.843747
     25          6           0       -4.125300   -0.343461    0.798338
     26          6           0       -2.656330   -0.120091    0.437482
     27          6           0       -1.706453   -0.468039    1.583982
     28          1           0       -4.375412    0.263007    1.679834
     29          1           0       -4.269163   -1.392849    1.089943
     30          1           0       -2.515985    0.928841    0.146519
     31          1           0       -2.409430   -0.725743   -0.443905
     32          1           0       -1.817222   -1.518837    1.870606
     33          1           0       -1.924383    0.145147    2.464385
     34          1           0       -0.661570   -0.300980    1.304393
 ---------------------------------------------------------------------

 SCF Done:  E(RHF) =  -669.534590618     A.U. after   15 cycles
 E2 =    -0.2092653084D+01 EUMP2 =    -0.67162724370226D+03

 The electronic state is 1-A.
 Alpha  occ. eigenvalues --  -20.60768 -20.60762 -15.85821 -11.31200 -11.27771
 Alpha  occ. eigenvalues --  -11.27762 -11.27495 -11.26779 -11.26749 -11.22721
 Alpha  occ. eigenvalues --  -11.22206 -11.22158 -11.22053 -11.21915 -11.21544
 Alpha  occ. eigenvalues --   -1.59843  -1.39396  -1.19378  -1.09217  -1.08771
 Alpha  occ. eigenvalues --   -1.04789  -1.04305  -0.96730  -0.95596  -0.87742
 Alpha  occ. eigenvalues --   -0.86177  -0.82428  -0.80397  -0.79003  -0.77479
 Alpha  occ. eigenvalues --   -0.72041  -0.71166  -0.70486  -0.65845  -0.65040
 Alpha  occ. eigenvalues --   -0.64838  -0.62187  -0.61693  -0.60076  -0.58333
 Alpha  occ. eigenvalues --   -0.55997  -0.55250  -0.53632  -0.53247  -0.52932
 Alpha  occ. eigenvalues --   -0.52695  -0.50649  -0.48806  -0.48794  -0.48690
 Alpha  occ. eigenvalues --   -0.47442  -0.46542  -0.46449  -0.44799  -0.44555
 Alpha  occ. eigenvalues --   -0.37308  -0.36360
 Alpha virt. eigenvalues --    0.05046   0.11122   0.16521   0.19569   0.22494
 Alpha virt. eigenvalues --    0.24016   0.24924   0.26031   0.26991   0.27365
 Alpha virt. eigenvalues --    0.29119   0.29634   0.30919   0.31602   0.31786

 Mulliken charges:
               1
     1  C   -0.171913
     2  C   -0.221774
     3  C   -0.172518
     4  C    0.158410
     5  C   -0.170713
     6  C   -0.219129
     7  H    0.229734
     8  H    0.229017
     9  H    0.275934
    10  H    0.275722
    11  H    0.223671
    12  N    0.488090
    13  O   -0.460379
    14  O   -0.460293
    15  C   -0.298818
    16  C   -0.300300
    17  C   -0.476097
    18  H    0.149057
    19  H    0.149838
    20  H    0.152876
    21  H    0.153293
    22  H    0.155780
    23  H    0.155332
    24  H    0.162120
    25  C   -0.297945
    26  C   -0.303541
    27  C   -0.486637
    28  H    0.152078
    29  H    0.152802
    30  H    0.146376
    31  H    0.148222
    32  H    0.159228
    33  H    0.158848
    34  H    0.163629
 Sum of Mulliken charges =  -0.00000

 Dipole moment (field-independent basis, Debye):
    X=             -4.8282    Y=              2.2407    Z=             -0.0895  Tot=              5.3235
 Quadrupole moment (field-independent basis, Debye-Ang):
   XX=           -130.1289   YY=            -89.9505   ZZ=            -95.6189
   XY=             10.8914   XZ=              0.1612   YZ=              1.2803

 Normal termination of Gaussian 16 at Wed May  5 19:00:00 2021.
