 Gaussian 16, Revision A.03,
 Gaussian 16:  EM64L-G16RevA.03 25-Dec-2016

 -------------
 #p 6-31g* mp2
 -------------

 ------------------------------------------------------
 Input file generated by CHIRIPA (05-May-2021 14:51:14)
 ------------------------------------------------------
 Symbolic Z-matrix:
 Charge =  0 Multiplicity = 1

                         Standard orientation:
 ---------------------------------------------------------------------
 Center     Atomic      Atomic             Coordinates (Angstroms)
 Number     Number       Type             X           Y           Z
 ---------------------------------------------------------------------
      1          6           0       -1.665113   -0.470386    0.664386
      2          6           0       -1.466549   -1.697358    1.554946
      3          6           0       -0.043999   -1.804527    2.105093
      4          1           0       -0.950253   -0.510452   -0.168870
      5          1           0       -1.424307    0.434356    1.239580
      6          1           0       -1.708989   -2.599429    0.978659
      7          1           0       -2.182093   -1.654464    2.386073
      8          1           0        0.205303   -0.921968    2.703040
      9          1           0        0.681095   -1.872302    1.287629
     10          1           0        0.075752   -2.688670    2.738978
     11          6           0       -3.082231   -0.349452    0.106822
     12          6           0       -3.280795    0.877520   -0.783738
     13          6           0       -4.703345    0.984689   -1.333885
     14          1           0       -3.323037   -1.254194   -0.468372
     15          1           0       -3.797090   -0.309386    0.940078
     16          1           0       -2.565251    0.834627   -1.614865
     17          1           0       -3.038355    1.779591   -0.207451
     18          1           0       -5.428439    1.052465   -0.516421
     19          1           0       -4.952646    0.102131   -1.931832
     20          1           0       -4.823096    1.868832   -1.967770
     21          6           0        2.033795    1.093785   -0.370051
     22          6           0        2.661554    2.060184    0.634926
     23          6           0        1.970692    3.424049    0.654385
     24          1           0        2.073352    1.540784   -1.372833
     25          1           0        0.969997    0.963557   -0.127627
     26          1           0        3.724174    2.187476    0.391510
     27          1           0        2.620671    1.610752    1.635402
     28          1           0        0.913847    3.316803    0.919292
     29          1           0        2.023620    3.896805   -0.331669
     30          1           0        2.435432    4.099182    1.379695
     31          6           0        2.713549   -0.273947   -0.401158
     32          6           0        2.085790   -1.240347   -1.406133
     33          6           0        2.776652   -2.604211   -1.425593
     34          1           0        3.777347   -0.143719   -0.643582
     35          1           0        2.673992   -0.720947    0.601625
     36          1           0        2.126673   -0.790914   -2.406610
     37          1           0        1.023170   -1.367638   -1.162718
     38          1           0        2.723724   -3.076967   -0.439540
     39          1           0        3.833497   -2.496965   -1.690500
     40          1           0        2.311913   -3.279345   -2.150902
 ---------------------------------------------------------------------

 SCF Done:  E(RHF) =  -470.731549666     A.U. after   11 cycles
 E2 =    -0.1586083609D+01 EUMP2 =    -0.47231763327508D+03

 The electronic state is 1-A.
 Alpha  occ. eigenvalues --  -11.21687 -11.21637 -11.21619 -11.21535 -11.21470
 Alpha  occ. eigenvalues --  -11.21408 -11.21318 -11.21223 -11.21133 -11.21103
 Alpha  occ. eigenvalues --  -11.21095 -11.21032  -1.08547  -1.08357  -1.03614
 Alpha  occ. eigenvalues --   -1.03500  -0.96051  -0.95953  -0.87088  -0.86958
 Alpha  occ. eigenvalues --   -0.79669  -0.79582  -0.78500  -0.78061  -0.65425
 Alpha  occ. eigenvalues --   -0.64833  -0.61252  -0.60674  -0.59408  -0.59319
 Alpha  occ. eigenvalues --   -0.57699  -0.57530  -0.55344  -0.55247  -0.52742
 Alpha  occ. eigenvalues --   -0.52668  -0.52501  -0.52383  -0.50071  -0.49841
 Alpha  occ. eigenvalues --   -0.48053  -0.47874  -0.46799  -0.46602  -0.46445
 Alpha  occ. eigenvalues --   -0.45748  -0.45645  -0.44884  -0.43847  -0.43740
 Alpha virt. eigenvalues --    0.20324   0.22936   0.23063   0.24709   0.25431
 Alpha virt. eigenvalues --    0.26064   0.26835   0.27829   0.29140   0.30287
 Alpha virt. eigenvalues --    0.30612   0.30889   0.31680   0.31772   0.32277

 Mulliken charges:
               1
     1  C   -0.309998
     2  C   -0.298736
     3  C   -0.484991
     4  H    0.159832
     5  H    0.149484
     6  H    0.151939
     7  H    0.152399
     8  H    0.154861
     9  H    0.164992
    10  H    0.160826
    11  C   -0.296859
    12  C   -0.300142
    13  C   -0.475720
    14  H    0.149592
    15  H    0.149827
    16  H    0.152547
    17  H    0.151839
    18  H    0.155223
    19  H    0.155262
    20  H    0.160546
    21  C   -0.306344
    22  C   -0.299410
    23  C   -0.475636
    24  H    0.148522
    25  H    0.159623
    26  H    0.151523
    27  H    0.151902
    28  H    0.154716
    29  H    0.155139
    30  H    0.159913
    31  C   -0.301774
    32  C   -0.308490
    33  C   -0.476461
    34  H    0.149938
    35  H    0.152880
    36  H    0.153021
    37  H    0.156391
    38  H    0.155832
    39  H    0.155904
    40  H    0.160086
 Sum of Mulliken charges =  -0.00000

 Dipole moment (field-independent basis, Debye):
    X=             -0.0381    Y=             -0.0207    Z=             -0.0003  Tot=              0.0433
 Quadrupole moment (field-independent basis, Debye-Ang):
   XX=            -85.4643   YY=            -85.5410   ZZ=            -83.8629
   XY=              0.6222   XZ=             -1.0647   YZ=              0.1547

 Normal termination of Gaussian 16 at Thu May  6 05:36:58 2021.
