 Gaussian 16, Revision A.03,
 Gaussian 16:  EM64L-G16RevA.03 25-Dec-2016

 -------------
 #p 6-31g* mp2
 -------------

 ------------------------------------------------------
 Input file generated by CHIRIPA (05-May-2021 14:57:24)
 ------------------------------------------------------
 Symbolic Z-matrix:
 Charge =  0 Multiplicity = 1

                         Standard orientation:
 ---------------------------------------------------------------------
 Center     Atomic      Atomic             Coordinates (Angstroms)
 Number     Number       Type             X           Y           Z
 ---------------------------------------------------------------------
      1          6           0       -1.455830   -0.147409    1.559124
      2          6           0       -1.736704   -1.216076    0.701463
      3          6           0       -2.922600   -1.239803   -0.038560
      4          6           0       -3.809191   -0.173540    0.104029
      5          6           0       -3.557799    0.905358    0.950239
      6          6           0       -2.365670    0.908037    1.680560
      7          1           0       -0.532176   -0.137153    2.130223
      8          1           0       -1.031951   -2.037108    0.605157
      9          1           0       -3.165147   -2.054636   -0.709855
     10          1           0       -4.279731    1.709482    1.025192
     11          1           0       -2.150171    1.739287    2.345863
     12          7           0       -5.067945   -0.187517   -0.674265
     13          8           0       -5.832654    0.763953   -0.530872
     14          8           0       -5.266013   -1.149678   -1.412948
     15          6           0        5.571949   -1.361832    0.133587
     16          6           0        5.775992    0.011064   -0.039747
     17          6           0        4.691763    0.869904   -0.243193
     18          6           0        3.411259    0.319449   -0.267675
     19          6           0        3.175570   -1.044001   -0.098122
     20          6           0        4.274676   -1.884062    0.103900
     21          1           0        6.419982   -2.021705    0.291076
     22          1           0        6.782361    0.419423   -0.017163
     23          1           0        4.821142    1.936636   -0.380161
     24          1           0        2.160677   -1.421694   -0.125605
     25          1           0        4.113217   -2.949864    0.238223
     26          7           0        2.255561    1.218723   -0.482300
     27          8           0        1.137310    0.708968   -0.499673
     28          8           0        2.489858    2.416303   -0.629086
 ---------------------------------------------------------------------

 SCF Done:  E(RHF) =  -868.337598483     A.U. after   16 cycles
 E2 =    -0.2600059543D+01 EUMP2 =    -0.87093765802540D+03

 The electronic state is 1-A.
 Alpha  occ. eigenvalues --  -20.61543 -20.61519 -20.60026 -20.60018 -15.86566
 Alpha  occ. eigenvalues --  -15.85077 -11.31919 -11.30258 -11.28537 -11.28434
 Alpha  occ. eigenvalues --  -11.28169 -11.27492 -11.27433 -11.26888 -11.26841
 Alpha  occ. eigenvalues --  -11.26569 -11.25883 -11.25769  -1.60607  -1.59104
 Alpha  occ. eigenvalues --   -1.40163  -1.38664  -1.20078  -1.18430  -1.09468
 Alpha  occ. eigenvalues --   -1.07849  -1.05477  -1.03840  -0.96312  -0.94719
 Alpha  occ. eigenvalues --   -0.86873  -0.85255  -0.83143  -0.81580  -0.78209
 Alpha  occ. eigenvalues --   -0.76656  -0.72789  -0.71939  -0.71306  -0.71175
 Alpha  occ. eigenvalues --   -0.70422  -0.69556  -0.65726  -0.65471  -0.64108
 Alpha  occ. eigenvalues --   -0.63893  -0.62832  -0.61230  -0.55952  -0.54351
 Alpha  occ. eigenvalues --   -0.53803  -0.53566  -0.52110  -0.51976  -0.49557
 Alpha  occ. eigenvalues --   -0.49532  -0.48065  -0.48047  -0.45570  -0.44113
 Alpha  occ. eigenvalues --   -0.38041  -0.37081  -0.36283  -0.35419
 Alpha virt. eigenvalues --    0.04282   0.05955   0.10569   0.12210   0.15793
 Alpha virt. eigenvalues --    0.17523   0.20038   0.21976   0.25728   0.27109
 Alpha virt. eigenvalues --    0.28605   0.28951   0.30607   0.31218   0.32448

 Mulliken charges:
               1
     1  C   -0.149635
     2  C   -0.212007
     3  C   -0.170789
     4  C    0.157803
     5  C   -0.169947
     6  C   -0.217147
     7  H    0.220353
     8  H    0.211670
     9  H    0.271424
    10  H    0.273369
    11  H    0.221753
    12  N    0.488385
    13  O   -0.462339
    14  O   -0.463703
    15  C   -0.170398
    16  C   -0.218076
    17  C   -0.170548
    18  C    0.158253
    19  C   -0.172787
    20  C   -0.217935
    21  H    0.227991
    22  H    0.225982
    23  H    0.277359
    24  H    0.269036
    25  H    0.224102
    26  N    0.488839
    27  O   -0.464004
    28  O   -0.457003
 Sum of Mulliken charges =  -0.00000

 Dipole moment (field-independent basis, Debye):
    X=              8.8972    Y=             -2.9517    Z=              3.5018  Tot=             10.0068
 Quadrupole moment (field-independent basis, Debye-Ang):
   XX=           -109.4939   YY=           -100.4434   ZZ=           -105.4497
   XY=             -9.3737   XZ=             -9.4207   YZ=              2.4262

 Normal termination of Gaussian 16 at Fri May  7 03:24:04 2021.
