 Gaussian 16, Revision A.03,
 Gaussian 16:  EM64L-G16RevA.03 25-Dec-2016

 -------------
 #p 6-31g* mp2
 -------------

 ------------------------------------------------------
 Input file generated by CHIRIPA (05-May-2021 14:53:18)
 ------------------------------------------------------
 Symbolic Z-matrix:
 Charge =  0 Multiplicity = 1

                         Standard orientation:
 ---------------------------------------------------------------------
 Center     Atomic      Atomic             Coordinates (Angstroms)
 Number     Number       Type             X           Y           Z
 ---------------------------------------------------------------------
      1          6           0       -4.205319   -0.203064   -0.042154
      2          6           0       -3.439083   -1.065169    0.961660
      3          6           0       -1.922602   -0.942633    0.809796
      4          1           0       -3.913001   -0.490847   -1.061309
      5          1           0       -3.906918    0.846920    0.083884
      6          1           0       -3.739866   -2.113037    0.834701
      7          1           0       -3.733401   -0.775432    1.978541
      8          1           0       -1.603180    0.094088    0.957380
      9          1           0       -1.609681   -1.251118   -0.192960
     10          1           0       -1.394529   -1.567142    1.537112
     11          6           0       -5.722496   -0.314850    0.097143
     12          6           0       -6.488732    0.547255   -0.906672
     13          6           0       -8.005213    0.424718   -0.754807
     14          1           0       -6.020897   -1.364834   -0.028895
     15          1           0       -6.014814   -0.027068    1.116298
     16          1           0       -6.194414    0.257517   -1.923552
     17          1           0       -6.187949    1.595123   -0.779712
     18          1           0       -8.318133    0.733203    0.247949
     19          1           0       -8.324635   -0.612002   -0.902391
     20          1           0       -8.533286    1.049227   -1.482123
     21          6           0        1.884357    1.570030    0.699939
     22          6           0        1.804924    0.173679    0.679556
     23          6           0        2.903332   -0.594230    0.281610
     24          6           0        4.070796    0.070085   -0.091224
     25          6           0        4.180993    1.459707   -0.081487
     26          6           0        3.070048    2.207464    0.320023
     27          1           0        1.026218    2.158733    1.010457
     28          1           0        0.885384   -0.324063    0.974079
     29          1           0        2.869240   -1.676647    0.256504
     30          1           0        5.111154    1.927400   -0.380622
     31          1           0        3.134610    3.291740    0.334875
     32          7           0        5.240268   -0.732200   -0.514398
     33          8           0        6.257393   -0.122892   -0.838187
     34          8           0        5.117631   -1.955146   -0.514279
 ---------------------------------------------------------------------

 SCF Done:  E(RHF) =  -669.535478874     A.U. after   15 cycles
 E2 =    -0.2091081351D+01 EUMP2 =    -0.67162656022513D+03

 The electronic state is 1-A.
 Alpha  occ. eigenvalues --  -20.60686 -20.60681 -15.85736 -11.31079 -11.27645
 Alpha  occ. eigenvalues --  -11.27616 -11.27374 -11.26669 -11.26554 -11.22504
 Alpha  occ. eigenvalues --  -11.22347 -11.22117 -11.22085 -11.21943 -11.21469
 Alpha  occ. eigenvalues --   -1.59761  -1.39316  -1.19241  -1.09124  -1.08643
 Alpha  occ. eigenvalues --   -1.04640  -1.04268  -0.96757  -0.95485  -0.87802
 Alpha  occ. eigenvalues --   -0.86030  -0.82315  -0.80358  -0.78894  -0.77360
 Alpha  occ. eigenvalues --   -0.71956  -0.71084  -0.70362  -0.65751  -0.64892
 Alpha  occ. eigenvalues --   -0.64649  -0.62015  -0.61647  -0.60136  -0.58326
 Alpha  occ. eigenvalues --   -0.56039  -0.55156  -0.53573  -0.53208  -0.52965
 Alpha  occ. eigenvalues --   -0.52574  -0.50687  -0.48734  -0.48713  -0.48624
 Alpha  occ. eigenvalues --   -0.47352  -0.46445  -0.46341  -0.44726  -0.44506
 Alpha  occ. eigenvalues --   -0.37227  -0.36237
 Alpha virt. eigenvalues --    0.05159   0.11394   0.16654   0.20461   0.22299
 Alpha virt. eigenvalues --    0.23744   0.25680   0.25882   0.26708   0.27537
 Alpha virt. eigenvalues --    0.28801   0.29708   0.30864   0.31453   0.32188

 Mulliken charges:
               1
     1  C   -0.299054
     2  C   -0.299608
     3  C   -0.483716
     4  H    0.151670
     5  H    0.148112
     6  H    0.156360
     7  H    0.154150
     8  H    0.147831
     9  H    0.160941
    10  H    0.159442
    11  C   -0.299030
    12  C   -0.300053
    13  C   -0.476082
    14  H    0.151279
    15  H    0.150316
    16  H    0.153001
    17  H    0.151645
    18  H    0.155559
    19  H    0.156195
    20  H    0.161587
    21  C   -0.174602
    22  C   -0.227524
    23  C   -0.174168
    24  C    0.159057
    25  C   -0.171713
    26  C   -0.218343
    27  H    0.224657
    28  H    0.242305
    29  H    0.275449
    30  H    0.275078
    31  H    0.222766
    32  N    0.488023
    33  O   -0.460849
    34  O   -0.460682
 Sum of Mulliken charges =  -0.00000

 Dipole moment (field-independent basis, Debye):
    X=             -4.4102    Y=              2.7686    Z=              1.4691  Tot=              5.4105
 Quadrupole moment (field-independent basis, Debye-Ang):
   XX=           -127.9684   YY=            -90.3685   ZZ=            -95.3538
   XY=             13.9904   XZ=              6.0616   YZ=             -0.3514

 Normal termination of Gaussian 16 at Thu May  6 14:00:01 2021.
