 Gaussian 16, Revision A.03,
 Gaussian 16:  EM64L-G16RevA.03 25-Dec-2016

 -------------
 #p 6-31g* mp2
 -------------

 ------------------------------------------------------
 Input file generated by CHIRIPA (05-May-2021 14:57:23)
 ------------------------------------------------------
 Symbolic Z-matrix:
 Charge =  0 Multiplicity = 1

                         Standard orientation:
 ---------------------------------------------------------------------
 Center     Atomic      Atomic             Coordinates (Angstroms)
 Number     Number       Type             X           Y           Z
 ---------------------------------------------------------------------
      1          6           0       -3.359648   -2.351140    0.137071
      2          6           0       -2.305354   -1.446472    0.300040
      3          6           0       -2.528281   -0.070209    0.196351
      4          6           0       -3.823860    0.368588   -0.072393
      5          6           0       -4.894966   -0.507756   -0.239849
      6          6           0       -4.648817   -1.879726   -0.131880
      7          1           0       -3.177454   -3.418587    0.219281
      8          1           0       -1.303137   -1.809722    0.508983
      9          1           0       -1.730335    0.652213    0.318029
     10          1           0       -5.883160   -0.115551   -0.447372
     11          1           0       -5.469509   -2.579991   -0.258915
     12          7           0       -4.072155    1.823304   -0.184430
     13          8           0       -5.222734    2.184473   -0.421837
     14          8           0       -3.111488    2.574795   -0.032716
     15          6           0        5.793211    1.348542   -0.323014
     16          6           0        5.605400    0.207754   -1.110321
     17          6           0        4.495203   -0.618080   -0.910301
     18          6           0        3.588591   -0.271661    0.090370
     19          6           0        3.748038    0.858218    0.891145
     20          6           0        4.865566    1.669567    0.673449
     21          1           0        6.658486    1.984444   -0.485261
     22          1           0        6.324191   -0.044016   -1.884915
     23          1           0        4.325387   -1.507167   -1.505369
     24          1           0        3.014335    1.083296    1.655630
     25          1           0        5.008863    2.554897    1.286394
     26          7           0        2.409396   -1.138267    0.311478
     27          8           0        1.625172   -0.811206    1.199544
     28          8           0        2.291694   -2.128166   -0.407468
 ---------------------------------------------------------------------

 SCF Done:  E(RHF) =  -868.341368434     A.U. after   16 cycles
 E2 =    -0.2598284241D+01 EUMP2 =    -0.87093965267466D+03

 The electronic state is 1-A.
 Alpha  occ. eigenvalues --  -20.61721 -20.61714 -20.60038 -20.60033 -15.86708
 Alpha  occ. eigenvalues --  -15.85078 -11.31706 -11.30196 -11.28235 -11.28217
 Alpha  occ. eigenvalues --  -11.27906 -11.27166 -11.27143 -11.26772 -11.26599
 Alpha  occ. eigenvalues --  -11.26368 -11.25775 -11.25409  -1.60768  -1.59117
 Alpha  occ. eigenvalues --   -1.40328  -1.38678  -1.19843  -1.18318  -1.09311
 Alpha  occ. eigenvalues --   -1.07761  -1.05188  -1.03647  -0.96205  -0.94645
 Alpha  occ. eigenvalues --   -0.86605  -0.85062  -0.83050  -0.81461  -0.78135
 Alpha  occ. eigenvalues --   -0.76541  -0.72940  -0.72052  -0.71306  -0.70947
 Alpha  occ. eigenvalues --   -0.70435  -0.69433  -0.65499  -0.65188  -0.63951
 Alpha  occ. eigenvalues --   -0.63600  -0.62538  -0.60972  -0.55707  -0.54178
 Alpha  occ. eigenvalues --   -0.53537  -0.53274  -0.52039  -0.51704  -0.49708
 Alpha  occ. eigenvalues --   -0.49673  -0.48072  -0.48032  -0.45810  -0.44138
 Alpha  occ. eigenvalues --   -0.37801  -0.36771  -0.36309  -0.35251
 Alpha virt. eigenvalues --    0.04355   0.05929   0.10889   0.12391   0.15923
 Alpha virt. eigenvalues --    0.17500   0.21056   0.22665   0.27003   0.27868
 Alpha virt. eigenvalues --    0.28743   0.29342   0.30688   0.32129   0.32314

 Mulliken charges:
               1
     1  C   -0.172372
     2  C   -0.226248
     3  C   -0.174212
     4  C    0.158043
     5  C   -0.173744
     6  C   -0.218690
     7  H    0.225074
     8  H    0.249230
     9  H    0.276273
    10  H    0.271536
    11  H    0.219362
    12  N    0.488212
    13  O   -0.463735
    14  O   -0.463281
    15  C   -0.169325
    16  C   -0.218559
    17  C   -0.170203
    18  C    0.157583
    19  C   -0.169869
    20  C   -0.218300
    21  H    0.228059
    22  H    0.225175
    23  H    0.275641
    24  H    0.276716
    25  H    0.226458
    26  N    0.489419
    27  O   -0.467737
    28  O   -0.460507
 Sum of Mulliken charges =  -0.00000

 Dipole moment (field-independent basis, Debye):
    X=              5.6498    Y=             -2.1146    Z=             -0.3598  Tot=              6.0433
 Quadrupole moment (field-independent basis, Debye-Ang):
   XX=            -77.5297   YY=           -109.3458   ZZ=           -103.3624
   XY=             30.5858   XZ=             -4.6445   YZ=              3.8294

 Normal termination of Gaussian 16 at Wed May  5 16:21:01 2021.
