 Gaussian 16, Revision A.03,
 Gaussian 16:  EM64L-G16RevA.03 25-Dec-2016

 -------------
 #p 6-31g* mp2
 -------------

 ------------------------------------------------------
 Input file generated by CHIRIPA (05-May-2021 14:51:10)
 ------------------------------------------------------
 Symbolic Z-matrix:
 Charge =  0 Multiplicity = 1

                         Standard orientation:
 ---------------------------------------------------------------------
 Center     Atomic      Atomic             Coordinates (Angstroms)
 Number     Number       Type             X           Y           Z
 ---------------------------------------------------------------------
      1          6           0       -5.115573   -0.432413    0.383132
      2          6           0       -6.205606   -0.821642   -0.616025
      3          6           0       -7.310019   -1.670269    0.014765
      4          1           0       -4.678909   -1.344111    0.813337
      5          1           0       -5.572028    0.118996    1.216794
      6          1           0       -5.747029   -1.370952   -1.448240
      7          1           0       -6.639594    0.091085   -1.044042
      8          1           0       -7.794165   -1.126522    0.832410
      9          1           0       -6.896528   -2.596866    0.425916
     10          1           0       -8.078728   -1.937218   -0.717140
     11          6           0       -4.004431    0.416142   -0.232534
     12          6           0       -2.914398    0.805371    0.766623
     13          6           0       -1.809985    1.653999    0.135833
     14          1           0       -3.547975   -0.135267   -1.066196
     15          1           0       -4.441095    1.327840   -0.662738
     16          1           0       -2.480410   -0.107356    1.194641
     17          1           0       -3.372975    1.354681    1.598838
     18          1           0       -2.223475    2.580595   -0.275317
     19          1           0       -1.325839    1.110251   -0.681812
     20          1           0       -1.041276    1.920947    0.867738
     21          6           0        3.811636    0.079906   -0.210319
     22          6           0        3.306505    1.516935   -0.077003
     23          6           0        1.807513    1.644364   -0.350089
     24          1           0        3.589096   -0.287930   -1.221317
     25          1           0        3.255234   -0.563006    0.485725
     26          1           0        3.864654    2.157188   -0.772103
     27          1           0        3.530445    1.881458    0.933733
     28          1           0        1.234501    1.029331    0.351332
     29          1           0        1.570608    1.306628   -1.364196
     30          1           0        1.467678    2.679841   -0.249297
     31          6           0        5.308368   -0.063635    0.059720
     32          6           0        5.813498   -1.500665   -0.073595
     33          6           0        7.312491   -1.628093    0.199491
     34          1           0        5.864771    0.579276   -0.636323
     35          1           0        5.530908    0.304201    1.070718
     36          1           0        5.589558   -1.865188   -1.084332
     37          1           0        5.255350   -2.140917    0.621504
     38          1           0        7.549396   -1.290357    1.213597
     39          1           0        7.885504   -1.013060   -0.501932
     40          1           0        7.652326   -2.663570    0.098698
 ---------------------------------------------------------------------

 SCF Done:  E(RHF) =  -470.732535663     A.U. after   11 cycles
 E2 =    -0.1582556451D+01 EUMP2 =    -0.47231509211398D+03

 The electronic state is 1-A.
 Alpha  occ. eigenvalues --  -11.21590 -11.21575 -11.21532 -11.21525 -11.21382
 Alpha  occ. eigenvalues --  -11.21363 -11.21322 -11.21301 -11.21063 -11.21052
 Alpha  occ. eigenvalues --  -11.20958 -11.20899  -1.08405  -1.08379  -1.03524
 Alpha  occ. eigenvalues --   -1.03444  -0.96029  -0.95839  -0.87112  -0.86791
 Alpha  occ. eigenvalues --   -0.79682  -0.79416  -0.78229  -0.78181  -0.65040
 Alpha  occ. eigenvalues --   -0.65009  -0.60942  -0.60847  -0.59409  -0.59206
 Alpha  occ. eigenvalues --   -0.57559  -0.57540  -0.55308  -0.55152  -0.52935
 Alpha  occ. eigenvalues --   -0.52458  -0.52351  -0.52214  -0.49938  -0.49779
 Alpha  occ. eigenvalues --   -0.47888  -0.47829  -0.46613  -0.46533  -0.45779
 Alpha  occ. eigenvalues --   -0.45722  -0.45685  -0.45638  -0.43875  -0.43555
 Alpha virt. eigenvalues --    0.22424   0.23006   0.23630   0.24848   0.26447
 Alpha virt. eigenvalues --    0.26673   0.26948   0.27545   0.27567   0.29316
 Alpha virt. eigenvalues --    0.30392   0.31164   0.31418   0.32063   0.32226

 Mulliken charges:
               1
     1  C   -0.298185
     2  C   -0.299590
     3  C   -0.475666
     4  H    0.149469
     5  H    0.149407
     6  H    0.151855
     7  H    0.151885
     8  H    0.155128
     9  H    0.155107
    10  H    0.160155
    11  C   -0.298357
    12  C   -0.300459
    13  C   -0.477164
    14  H    0.149421
    15  H    0.149541
    16  H    0.151111
    17  H    0.151319
    18  H    0.153770
    19  H    0.158092
    20  H    0.163128
    21  C   -0.298312
    22  C   -0.301176
    23  C   -0.474622
    24  H    0.149367
    25  H    0.149230
    26  H    0.151421
    27  H    0.151379
    28  H    0.157887
    29  H    0.154047
    30  H    0.160982
    31  C   -0.298166
    32  C   -0.299595
    33  C   -0.475681
    34  H    0.149529
    35  H    0.149575
    36  H    0.151851
    37  H    0.151805
    38  H    0.155158
    39  H    0.155180
    40  H    0.160176
 Sum of Mulliken charges =  -0.00000

 Dipole moment (field-independent basis, Debye):
    X=              0.0060    Y=              0.0159    Z=             -0.0067  Tot=              0.0182
 Quadrupole moment (field-independent basis, Debye-Ang):
   XX=            -86.7328   YY=            -84.4872   ZZ=            -83.8762
   XY=             -0.6952   XZ=             -0.2055   YZ=              0.2762

 Normal termination of Gaussian 16 at Thu May  6 05:24:07 2021.
