 Gaussian 16, Revision A.03,
 Gaussian 16:  EM64L-G16RevA.03 25-Dec-2016

 -------------
 #p 6-31g* mp2
 -------------

 ------------------------------------------------------
 Input file generated by CHIRIPA (05-May-2021 14:57:24)
 ------------------------------------------------------
 Symbolic Z-matrix:
 Charge =  0 Multiplicity = 1

                         Standard orientation:
 ---------------------------------------------------------------------
 Center     Atomic      Atomic             Coordinates (Angstroms)
 Number     Number       Type             X           Y           Z
 ---------------------------------------------------------------------
      1          6           0       -2.494931    2.287569   -0.899561
      2          6           0       -1.382567    1.484412   -0.627338
      3          6           0       -1.548013    0.175591   -0.164558
      4          6           0       -2.845949   -0.300008    0.015602
      5          6           0       -3.974148    0.475632   -0.246772
      6          6           0       -3.784897    1.781508   -0.708745
      7          1           0       -2.357162    3.303148   -1.258747
      8          1           0       -0.379587    1.874780   -0.774607
      9          1           0       -0.704438   -0.467862    0.053997
     10          1           0       -4.961581    0.058619   -0.090265
     11          1           0       -4.650616    2.402978   -0.919339
     12          7           0       -3.033700   -1.684039    0.505099
     13          8           0       -4.187641   -2.079509    0.655629
     14          8           0       -2.023362   -2.347165    0.728970
     15          6           0        2.277007    1.959515    1.650445
     16          6           0        2.192196    2.160146    0.268752
     17          6           0        2.487973    1.121426   -0.619011
     18          6           0        2.867017   -0.110585   -0.088194
     19          6           0        2.960758   -0.341586    1.283352
     20          6           0        2.660341    0.711489    2.152450
     21          1           0        2.045439    2.771993    2.332831
     22          1           0        1.894761    3.128321   -0.123947
     23          1           0        2.430470    1.249300   -1.693144
     24          1           0        3.260065   -1.317848    1.644939
     25          1           0        2.727062    0.552800    3.225022
     26          7           0        3.182599   -1.217830   -1.018149
     27          8           0        3.514165   -2.293829   -0.525275
     28          8           0        3.092409   -0.988723   -2.222315
 ---------------------------------------------------------------------

 SCF Done:  E(RHF) =  -868.336256381     A.U. after   16 cycles
 E2 =    -0.2602480983D+01 EUMP2 =    -0.87093873736454D+03

 The electronic state is 1-A.
 Alpha  occ. eigenvalues --  -20.61231 -20.61201 -20.60750 -20.60740 -15.86287
 Alpha  occ. eigenvalues --  -15.85801 -11.31942 -11.31224 -11.28601 -11.28447
 Alpha  occ. eigenvalues --  -11.28270 -11.27805 -11.27768 -11.27660 -11.27590
 Alpha  occ. eigenvalues --  -11.27468 -11.26850 -11.26753  -1.60292  -1.59822
 Alpha  occ. eigenvalues --   -1.39835  -1.39373  -1.20147  -1.19403  -1.09459
 Alpha  occ. eigenvalues --   -1.08803  -1.05595  -1.04800  -0.96243  -0.95624
 Alpha  occ. eigenvalues --   -0.86940  -0.86223  -0.83085  -0.82444  -0.78095
 Alpha  occ. eigenvalues --   -0.77477  -0.72489  -0.72019  -0.71631  -0.71170
 Alpha  occ. eigenvalues --   -0.71146  -0.70541  -0.65774  -0.65571  -0.65058
 Alpha  occ. eigenvalues --   -0.64841  -0.62903  -0.62172  -0.56000  -0.55390
 Alpha  occ. eigenvalues --   -0.53898  -0.53638  -0.53142  -0.52843  -0.49275
 Alpha  occ. eigenvalues --   -0.49230  -0.48784  -0.48770  -0.45175  -0.44765
 Alpha  occ. eigenvalues --   -0.38127  -0.37423  -0.37154  -0.36382
 Alpha virt. eigenvalues --    0.04423   0.05046   0.10327   0.11309   0.15725
 Alpha virt. eigenvalues --    0.16524   0.20104   0.21794   0.25770   0.27526
 Alpha virt. eigenvalues --    0.27752   0.28387   0.30124   0.31555   0.31956

 Mulliken charges:
               1
     1  C   -0.173161
     2  C   -0.219681
     3  C   -0.173504
     4  C    0.158742
     5  C   -0.171075
     6  C   -0.218374
     7  H    0.222300
     8  H    0.222197
     9  H    0.276609
    10  H    0.275791
    11  H    0.222925
    12  N    0.487930
    13  O   -0.460684
    14  O   -0.458699
    15  C   -0.169146
    16  C   -0.227374
    17  C   -0.178612
    18  C    0.157556
    19  C   -0.168838
    20  C   -0.217833
    21  H    0.228789
    22  H    0.221356
    23  H    0.277177
    24  H    0.282112
    25  H    0.229036
    26  N    0.488064
    27  O   -0.453817
    28  O   -0.459786
 Sum of Mulliken charges =  -0.00000

 Dipole moment (field-independent basis, Debye):
    X=             -0.1612    Y=              8.5327    Z=              1.7549  Tot=              8.7128
 Quadrupole moment (field-independent basis, Debye-Ang):
   XX=           -109.9242   YY=           -107.9402   ZZ=           -103.1204
   XY=             -4.3677   XZ=             16.0099   YZ=             -2.6086

 Normal termination of Gaussian 16 at Wed May  5 17:53:52 2021.
