 Gaussian 16, Revision A.03,
 Gaussian 16:  EM64L-G16RevA.03 25-Dec-2016

 -------------
 #p 6-31g* mp2
 -------------

 ------------------------------------------------------
 Input file generated by CHIRIPA (05-May-2021 14:53:15)
 ------------------------------------------------------
 Symbolic Z-matrix:
 Charge =  0 Multiplicity = 1

                         Standard orientation:
 ---------------------------------------------------------------------
 Center     Atomic      Atomic             Coordinates (Angstroms)
 Number     Number       Type             X           Y           Z
 ---------------------------------------------------------------------
      1          6           0       -4.836540    0.512076    0.106690
      2          6           0       -6.319506    0.509569   -0.265856
      3          6           0       -6.975930    1.879022   -0.088372
      4          1           0       -4.727538    0.840144    1.149492
      5          1           0       -4.311745    1.254080   -0.510898
      6          1           0       -6.841102   -0.233190    0.351285
      7          1           0       -6.425004    0.181285   -1.307833
      8          1           0       -6.481710    2.627409   -0.716277
      9          1           0       -6.900172    2.210579    0.952268
     10          1           0       -8.035791    1.854472   -0.360312
     11          6           0       -4.166350   -0.849884   -0.065470
     12          6           0       -2.683384   -0.847376    0.307076
     13          6           0       -2.026960   -2.216829    0.129592
     14          1           0       -4.691145   -1.591888    0.552119
     15          1           0       -4.275352   -1.177951   -1.108271
     16          1           0       -2.577886   -0.519092    1.349053
     17          1           0       -2.161788   -0.104617   -0.310065
     18          1           0       -2.102718   -2.548386   -0.911048
     19          1           0       -2.521180   -2.965216    0.757497
     20          1           0       -0.967099   -2.192280    0.401532
     21          6           0        5.849425    1.093135   -0.042643
     22          6           0        5.659974   -0.287803   -0.159434
     23          6           0        4.372012   -0.831419   -0.145958
     24          6           0        3.291240    0.039033   -0.013535
     25          6           0        3.447494    1.419202    0.104811
     26          6           0        4.744528    1.940736    0.088875
     27          1           0        6.853469    1.506852   -0.054067
     28          1           0        6.516196   -0.948462   -0.261701
     29          1           0        4.196669   -1.896694   -0.234622
     30          1           0        2.574416    2.052475    0.205405
     31          1           0        4.888652    3.013589    0.179761
     32          7           0        1.922930   -0.524781    0.002033
     33          8           0        0.987277    0.263454    0.119839
     34          8           0        1.812010   -1.744256   -0.103865
 ---------------------------------------------------------------------

 SCF Done:  E(RHF) =  -669.536890744     A.U. after   15 cycles
 E2 =    -0.2091859710D+01 EUMP2 =    -0.67162875045377D+03

 The electronic state is 1-A.
 Alpha  occ. eigenvalues --  -20.61138 -20.61132 -15.86123 -11.31395 -11.27943
 Alpha  occ. eigenvalues --  -11.27940 -11.27671 -11.26936 -11.26926 -11.20785
 Alpha  occ. eigenvalues --  -11.20419 -11.20336 -11.20026 -11.19721 -11.18879
 Alpha  occ. eigenvalues --   -1.60165  -1.39722  -1.19551  -1.08967  -1.07199
 Alpha  occ. eigenvalues --   -1.04937  -1.02170  -0.95818  -0.94630  -0.86340
 Alpha  occ. eigenvalues --   -0.85665  -0.82650  -0.78324  -0.77714  -0.76902
 Alpha  occ. eigenvalues --   -0.72320  -0.71466  -0.70659  -0.65205  -0.64940
 Alpha  occ. eigenvalues --   -0.63854  -0.62283  -0.59593  -0.58106  -0.56208
 Alpha  occ. eigenvalues --   -0.55425  -0.53971  -0.53272  -0.53027  -0.51355
 Alpha  occ. eigenvalues --   -0.51087  -0.49098  -0.48942  -0.48650  -0.46578
 Alpha  occ. eigenvalues --   -0.45409  -0.45145  -0.44460  -0.44323  -0.42382
 Alpha  occ. eigenvalues --   -0.37528  -0.36534
 Alpha virt. eigenvalues --    0.04812   0.11122   0.16324   0.21260   0.23958
 Alpha virt. eigenvalues --    0.25745   0.27189   0.27790   0.28137   0.28679
 Alpha virt. eigenvalues --    0.29410   0.30841   0.32351   0.32635   0.32814

 Mulliken charges:
               1
     1  C   -0.296730
     2  C   -0.298477
     3  C   -0.474882
     4  H    0.147585
     5  H    0.148351
     6  H    0.150361
     7  H    0.150453
     8  H    0.153851
     9  H    0.153872
    10  H    0.157496
    11  C   -0.297633
    12  C   -0.296404
    13  C   -0.485233
    14  H    0.144898
    15  H    0.146034
    16  H    0.146844
    17  H    0.161577
    18  H    0.147166
    19  H    0.142215
    20  H    0.189136
    21  C   -0.170348
    22  C   -0.218608
    23  C   -0.170533
    24  C    0.158889
    25  C   -0.170718
    26  C   -0.218624
    27  H    0.226366
    28  H    0.224198
    29  H    0.276165
    30  H    0.276128
    31  H    0.224200
    32  N    0.488914
    33  O   -0.458471
    34  O   -0.458036
 Sum of Mulliken charges =  -0.00000

 Dipole moment (field-independent basis, Debye):
    X=              5.4083    Y=              2.0527    Z=             -0.0624  Tot=              5.7851
 Quadrupole moment (field-independent basis, Debye-Ang):
   XX=            -64.8672   YY=            -91.6137   ZZ=            -94.8167
   XY=              5.2670   XZ=             -0.6489   YZ=              0.2387

 Normal termination of Gaussian 16 at Thu May  6 15:30:36 2021.
