 Gaussian 16, Revision A.03,
 Gaussian 16:  EM64L-G16RevA.03 25-Dec-2016

 -------------
 #p 6-31g* mp2
 -------------

 ------------------------------------------------------
 Input file generated by CHIRIPA (05-May-2021 14:51:09)
 ------------------------------------------------------
 Symbolic Z-matrix:
 Charge =  0 Multiplicity = 1

                         Standard orientation:
 ---------------------------------------------------------------------
 Center     Atomic      Atomic             Coordinates (Angstroms)
 Number     Number       Type             X           Y           Z
 ---------------------------------------------------------------------
      1          6           0       -4.721303   -0.269819    0.151515
      2          6           0       -4.953927   -1.706874   -0.316186
      3          6           0       -6.167979   -2.355879    0.349143
      4          1           0       -4.590969   -0.262540    1.242342
      5          1           0       -5.619262    0.327121   -0.059978
      6          1           0       -4.055281   -2.300598   -0.105132
      7          1           0       -5.083531   -1.710756   -1.406050
      8          1           0       -7.077673   -1.788196    0.128249
      9          1           0       -6.043581   -2.381389    1.436559
     10          1           0       -6.315784   -3.382714    0.000397
     11          6           0       -3.511147    0.392456   -0.504718
     12          6           0       -3.278523    1.829511   -0.037018
     13          6           0       -2.064471    2.478517   -0.702346
     14          1           0       -2.613188   -0.204483   -0.293226
     15          1           0       -3.641480    0.385177   -1.595546
     16          1           0       -3.148919    1.833393    1.052846
     17          1           0       -4.177169    2.423236   -0.248072
     18          1           0       -2.188869    2.504027   -1.789763
     19          1           0       -1.154777    1.910833   -0.481453
     20          1           0       -1.916665    3.505352   -0.353601
     21          6           0        4.830483   -0.020152   -0.090928
     22          6           0        5.564383   -1.361384   -0.069166
     23          6           0        6.992099   -1.262827   -0.607413
     24          1           0        4.810124    0.362791   -1.120435
     25          1           0        5.397648    0.709922    0.502968
     26          1           0        4.995287   -2.089084   -0.661786
     27          1           0        5.582831   -1.741270    0.960379
     28          1           0        7.580618   -0.557695   -0.011564
     29          1           0        6.989736   -0.907485   -1.642946
     30          1           0        7.498297   -2.232886   -0.582764
     31          6           0        3.401966   -0.102486    0.444131
     32          6           0        2.668067    1.238745    0.422370
     33          6           0        1.240351    1.140189    0.960617
     34          1           0        2.834802   -0.832559   -0.149765
     35          1           0        3.422326   -0.485428    1.473638
     36          1           0        2.649619    1.618633   -0.607175
     37          1           0        3.237164    1.966446    1.014990
     38          1           0        1.242714    0.784847    1.996149
     39          1           0        0.651832    0.435058    0.364768
     40          1           0        0.734153    2.110248    0.935967
 ---------------------------------------------------------------------

 SCF Done:  E(RHF) =  -470.732546354     A.U. after   11 cycles
 E2 =    -0.1582809815D+01 EUMP2 =    -0.47231535616978D+03

 The electronic state is 1-A.
 Alpha  occ. eigenvalues --  -11.21636 -11.21616 -11.21575 -11.21516 -11.21428
 Alpha  occ. eigenvalues --  -11.21368 -11.21362 -11.21302 -11.21113 -11.21081
 Alpha  occ. eigenvalues --  -11.21049 -11.20878  -1.08457  -1.08376  -1.03575
 Alpha  occ. eigenvalues --   -1.03455  -0.96057  -0.95882  -0.87104  -0.86876
 Alpha  occ. eigenvalues --   -0.79676  -0.79490  -0.78270  -0.78190  -0.65108
 Alpha  occ. eigenvalues --   -0.64996  -0.61077  -0.60803  -0.59391  -0.59286
 Alpha  occ. eigenvalues --   -0.57636  -0.57527  -0.55478  -0.55071  -0.52804
 Alpha  occ. eigenvalues --   -0.52599  -0.52427  -0.52270  -0.50108  -0.49675
 Alpha  occ. eigenvalues --   -0.47942  -0.47839  -0.46745  -0.46456  -0.45822
 Alpha  occ. eigenvalues --   -0.45758  -0.45712  -0.45608  -0.43782  -0.43715
 Alpha virt. eigenvalues --    0.21858   0.23009   0.23663   0.24921   0.26023
 Alpha virt. eigenvalues --    0.26772   0.27245   0.27395   0.27804   0.29170
 Alpha virt. eigenvalues --    0.30380   0.31485   0.31705   0.31896   0.32034

 Mulliken charges:
               1
     1  C   -0.298253
     2  C   -0.299623
     3  C   -0.475675
     4  H    0.149748
     5  H    0.149492
     6  H    0.151814
     7  H    0.151793
     8  H    0.155145
     9  H    0.155183
    10  H    0.160118
    11  C   -0.298774
    12  C   -0.298832
    13  C   -0.484722
    14  H    0.149413
    15  H    0.149368
    16  H    0.151864
    17  H    0.151368
    18  H    0.153712
    19  H    0.167074
    20  H    0.158316
    21  C   -0.298346
    22  C   -0.299677
    23  C   -0.475725
    24  H    0.149827
    25  H    0.149599
    26  H    0.151958
    27  H    0.151920
    28  H    0.155206
    29  H    0.155248
    30  H    0.160293
    31  C   -0.298690
    32  C   -0.299908
    33  C   -0.481193
    34  H    0.149688
    35  H    0.149647
    36  H    0.152828
    37  H    0.152282
    38  H    0.155432
    39  H    0.155423
    40  H    0.165659
 Sum of Mulliken charges =  -0.00000

 Dipole moment (field-independent basis, Debye):
    X=              0.0591    Y=             -0.0029    Z=              0.0193  Tot=              0.0623
 Quadrupole moment (field-independent basis, Debye-Ang):
   XX=            -86.2751   YY=            -85.1040   ZZ=            -83.6089
   XY=             -0.4393   XZ=              1.4492   YZ=              0.1967

 Normal termination of Gaussian 16 at Wed May  5 21:22:38 2021.
