 Gaussian 16, Revision A.03,
 Gaussian 16:  EM64L-G16RevA.03 25-Dec-2016

 -------------
 #p 6-31g* mp2
 -------------

 ------------------------------------------------------
 Input file generated by CHIRIPA (05-May-2021 14:53:16)
 ------------------------------------------------------
 Symbolic Z-matrix:
 Charge =  0 Multiplicity = 1

                         Standard orientation:
 ---------------------------------------------------------------------
 Center     Atomic      Atomic             Coordinates (Angstroms)
 Number     Number       Type             X           Y           Z
 ---------------------------------------------------------------------
      1          6           0        3.171970   -0.217266    0.144492
      2          6           0        3.754337   -1.523876   -0.395511
      3          6           0        4.219432   -2.467072    0.714381
      4          1           0        3.928129    0.286048    0.762426
      5          1           0        2.327764   -0.447279    0.809177
      6          1           0        4.596320   -1.291405   -1.060070
      7          1           0        2.996768   -2.024045   -1.012388
      8          1           0        3.384800   -2.727984    1.373104
      9          1           0        4.993440   -1.991182    1.325152
     10          1           0        4.632201   -3.394836    0.306048
     11          6           0        2.702599    0.736070   -0.953036
     12          6           0        2.120232    2.042680   -0.413033
     13          6           0        1.655137    2.985876   -1.522925
     14          1           0        3.546805    0.966083   -1.617721
     15          1           0        1.946440    0.232756   -1.570970
     16          1           0        2.877801    2.542849    0.203844
     17          1           0        1.278249    1.810210    0.251526
     18          1           0        0.881129    2.509986   -2.133696
     19          1           0        2.489769    3.246789   -2.181648
     20          1           0        1.242368    3.913640   -1.114592
     21          6           0       -3.623978   -1.523461   -1.373708
     22          6           0       -4.052069   -0.248926   -0.987941
     23          6           0       -3.323461    0.491911   -0.052611
     24          6           0       -2.166249   -0.074967    0.479176
     25          6           0       -1.713930   -1.342274    0.114990
     26          6           0       -2.458330   -2.065113   -0.821984
     27          1           0       -4.196110   -2.091970   -2.100933
     28          1           0       -4.956942    0.174246   -1.414761
     29          1           0       -3.632109    1.480861    0.263828
     30          1           0       -0.807861   -1.737587    0.557919
     31          1           0       -2.123482   -3.054700   -1.119712
     32          7           0       -1.386546    0.699797    1.470239
     33          8           0       -0.370456    0.177981    1.924009
     34          8           0       -1.806268    1.814200    1.774497
 ---------------------------------------------------------------------

 SCF Done:  E(RHF) =  -669.536270880     A.U. after   15 cycles
 E2 =    -0.2092552395D+01 EUMP2 =    -0.67162882327546D+03

 The electronic state is 1-A.
 Alpha  occ. eigenvalues --  -20.61071 -20.61065 -15.86077 -11.31361 -11.27923
 Alpha  occ. eigenvalues --  -11.27912 -11.27645 -11.26914 -11.26904 -11.21184
 Alpha  occ. eigenvalues --  -11.20748 -11.20718 -11.20653 -11.20563 -11.20425
 Alpha  occ. eigenvalues --   -1.60122  -1.39678  -1.19525  -1.08937  -1.07762
 Alpha  occ. eigenvalues --   -1.04913  -1.02928  -0.95786  -0.95391  -0.86415
 Alpha  occ. eigenvalues --   -0.86316  -0.82622  -0.78976  -0.77705  -0.77513
 Alpha  occ. eigenvalues --   -0.72302  -0.71446  -0.70632  -0.65184  -0.64916
 Alpha  occ. eigenvalues --   -0.64391  -0.62261  -0.60342  -0.58758  -0.56980
 Alpha  occ. eigenvalues --   -0.55418  -0.54698  -0.53248  -0.53004  -0.52110
 Alpha  occ. eigenvalues --   -0.51811  -0.49375  -0.49065  -0.49060  -0.47291
 Alpha  occ. eigenvalues --   -0.46016  -0.45468  -0.45115  -0.44517  -0.43152
 Alpha  occ. eigenvalues --   -0.37498  -0.36511
 Alpha virt. eigenvalues --    0.04787   0.11128   0.16257   0.20924   0.23138
 Alpha virt. eigenvalues --    0.24728   0.26549   0.27432   0.27871   0.28372
 Alpha virt. eigenvalues --    0.29046   0.31181   0.31686   0.32212   0.32507

 Mulliken charges:
               1
     1  C   -0.307212
     2  C   -0.298328
     3  C   -0.474945
     4  H    0.149799
     5  H    0.168333
     6  H    0.150232
     7  H    0.144113
     8  H    0.154872
     9  H    0.156793
    10  H    0.156650
    11  C   -0.296160
    12  C   -0.306670
    13  C   -0.475421
    14  H    0.145830
    15  H    0.141827
    16  H    0.152268
    17  H    0.168229
    18  H    0.149175
    19  H    0.151768
    20  H    0.162285
    21  C   -0.170355
    22  C   -0.218563
    23  C   -0.170580
    24  C    0.158114
    25  C   -0.171092
    26  C   -0.218628
    27  H    0.226385
    28  H    0.224190
    29  H    0.276130
    30  H    0.275886
    31  H    0.224304
    32  N    0.488686
    33  O   -0.460576
    34  O   -0.457340
 Sum of Mulliken charges =  -0.00000

 Dipole moment (field-independent basis, Debye):
    X=             -2.9754    Y=             -2.6726    Z=             -3.2779  Tot=              5.1711
 Quadrupole moment (field-independent basis, Debye-Ang):
   XX=            -80.5583   YY=            -92.5232   ZZ=            -99.5499
   XY=              4.2890   XZ=              6.9582   YZ=             -0.4627

 Normal termination of Gaussian 16 at Thu May  6 02:46:50 2021.
