 Gaussian 16, Revision A.03,
 Gaussian 16:  EM64L-G16RevA.03 25-Dec-2016

 -------------
 #p 6-31g* mp2
 -------------

 ------------------------------------------------------
 Input file generated by CHIRIPA (05-May-2021 14:55:22)
 ------------------------------------------------------
 Symbolic Z-matrix:
 Charge =  0 Multiplicity = 1

                         Standard orientation:
 ---------------------------------------------------------------------
 Center     Atomic      Atomic             Coordinates (Angstroms)
 Number     Number       Type             X           Y           Z
 ---------------------------------------------------------------------
      1          6           0       -4.033749    1.165058    0.898779
      2          6           0       -4.331637    0.342933   -0.192959
      3          6           0       -3.413380   -0.615887   -0.631159
      4          6           0       -2.201351   -0.725950    0.048665
      5          6           0       -1.875388    0.078396    1.139566
      6          6           0       -2.808735    1.030404    1.560391
      7          1           0       -4.752933    1.907247    1.232434
      8          1           0       -5.282214    0.445278   -0.708685
      9          1           0       -3.618257   -1.265372   -1.473544
     10          1           0       -0.919539   -0.047111    1.633549
     11          1           0       -2.574693    1.667513    2.408543
     12          7           0       -1.221246   -1.737403   -0.406041
     13          8           0       -0.160425   -1.814542    0.209869
     14          8           0       -1.532420   -2.433890   -1.369739
     15          6           0        3.712680    0.541081    0.123365
     16          6           0        3.942892   -0.963216    0.271951
     17          6           0        5.324106   -1.296960    0.836449
     18          1           0        4.488974    0.961557   -0.530481
     19          1           0        3.835270    1.022301    1.103565
     20          1           0        3.818542   -1.441638   -0.707981
     21          1           0        3.165847   -1.380192    0.925364
     22          1           0        5.455234   -0.846242    1.825519
     23          1           0        6.111639   -0.908037    0.182894
     24          1           0        5.467395   -2.377581    0.934361
     25          6           0        2.336302    0.890599   -0.439795
     26          6           0        2.106089    2.394896   -0.588381
     27          6           0        0.724876    2.728640   -1.152879
     28          1           0        2.213711    0.409378   -1.419995
     29          1           0        1.560008    0.470123    0.214050
     30          1           0        2.883135    2.811871   -1.241793
     31          1           0        2.230439    2.873318    0.391550
     32          1           0       -0.062656    2.339718   -0.499325
     33          1           0        0.593748    2.277922   -2.141949
     34          1           0        0.581587    3.809261   -1.250791
 ---------------------------------------------------------------------

 SCF Done:  E(RHF) =  -669.536006163     A.U. after   15 cycles
 E2 =    -0.2092856233D+01 EUMP2 =    -0.67162886239591D+03

 The electronic state is 1-A.
 Alpha  occ. eigenvalues --  -20.60925 -20.60908 -15.85945 -11.31302 -11.27886
 Alpha  occ. eigenvalues --  -11.27851 -11.27593 -11.26891 -11.26864 -11.21221
 Alpha  occ. eigenvalues --  -11.20867 -11.20709 -11.20619 -11.20598 -11.20340
 Alpha  occ. eigenvalues --   -1.59973  -1.39531  -1.19470  -1.08863  -1.07768
 Alpha  occ. eigenvalues --   -1.04874  -1.02938  -0.95704  -0.95411  -0.86438
 Alpha  occ. eigenvalues --   -0.86269  -0.82541  -0.78986  -0.77690  -0.77419
 Alpha  occ. eigenvalues --   -0.72171  -0.71281  -0.70576  -0.65129  -0.64881
 Alpha  occ. eigenvalues --   -0.64408  -0.62224  -0.60351  -0.58793  -0.56998
 Alpha  occ. eigenvalues --   -0.55368  -0.54736  -0.53195  -0.52964  -0.52134
 Alpha  occ. eigenvalues --   -0.51822  -0.49396  -0.48934  -0.48926  -0.47305
 Alpha  occ. eigenvalues --   -0.46032  -0.45381  -0.45017  -0.44507  -0.43163
 Alpha  occ. eigenvalues --   -0.37433  -0.36453
 Alpha virt. eigenvalues --    0.04901   0.11121   0.16385   0.20933   0.23243
 Alpha virt. eigenvalues --    0.24724   0.26122   0.27537   0.27730   0.28306
 Alpha virt. eigenvalues --    0.29166   0.31116   0.31675   0.32208   0.32295

 Mulliken charges:
               1
     1  C   -0.170264
     2  C   -0.218084
     3  C   -0.170514
     4  C    0.159435
     5  C   -0.171276
     6  C   -0.218972
     7  H    0.226224
     8  H    0.224006
     9  H    0.275943
    10  H    0.276260
    11  H    0.224279
    12  N    0.489492
    13  O   -0.460376
    14  O   -0.459247
    15  C   -0.298490
    16  C   -0.300179
    17  C   -0.475779
    18  H    0.146524
    19  H    0.143944
    20  H    0.155847
    21  H    0.162628
    22  H    0.151251
    23  H    0.152164
    24  H    0.160543
    25  C   -0.303002
    26  C   -0.299242
    27  C   -0.477287
    28  H    0.153187
    29  H    0.158586
    30  H    0.151165
    31  H    0.146691
    32  H    0.150934
    33  H    0.156765
    34  H    0.156845
 Sum of Mulliken charges =  -0.00000

 Dipole moment (field-independent basis, Debye):
    X=             -3.6556    Y=              3.3325    Z=              1.5705  Tot=              5.1900
 Quadrupole moment (field-independent basis, Debye-Ang):
   XX=            -79.2113   YY=           -100.8154   ZZ=            -91.6078
   XY=             -4.5118   XZ=             -2.0590   YZ=              0.5563

 Normal termination of Gaussian 16 at Wed May  5 22:18:32 2021.
