 Gaussian 16, Revision A.03,
 Gaussian 16:  EM64L-G16RevA.03 25-Dec-2016

 -------------
 #p 6-31g* mp2
 -------------

 ------------------------------------------------------
 Input file generated by CHIRIPA (05-May-2021 14:53:14)
 ------------------------------------------------------
 Symbolic Z-matrix:
 Charge =  0 Multiplicity = 1

                         Standard orientation:
 ---------------------------------------------------------------------
 Center     Atomic      Atomic             Coordinates (Angstroms)
 Number     Number       Type             X           Y           Z
 ---------------------------------------------------------------------
      1          6           0        2.568399    0.717995    0.390560
      2          6           0        2.795155    2.211260    0.152387
      3          6           0        1.984850    3.091476    1.104448
      4          1           0        1.498769    0.493628    0.278769
      5          1           0        2.831763    0.475351    1.429385
      6          1           0        2.532755    2.450752   -0.886076
      7          1           0        3.864396    2.432065    0.264569
      8          1           0        2.252409    2.881407    2.145065
      9          1           0        0.913203    2.900201    0.987882
     10          1           0        2.162031    4.155058    0.916670
     11          6           0        3.371636   -0.174887   -0.553527
     12          6           0        3.144880   -1.668152   -0.315354
     13          6           0        3.955185   -2.548368   -1.267415
     14          1           0        3.108272    0.067757   -1.592352
     15          1           0        4.441265    0.049480   -0.441736
     16          1           0        2.075638   -1.888957   -0.427536
     17          1           0        3.407279   -1.907644    0.723109
     18          1           0        5.026832   -2.357093   -1.150849
     19          1           0        3.687625   -2.338299   -2.308032
     20          1           0        3.778003   -3.611950   -1.079637
     21          6           0       -1.784514   -2.355041    1.283025
     22          6           0       -1.028211   -1.203671    1.525666
     23          6           0       -1.316129   -0.010810    0.855790
     24          6           0       -2.372127   -0.004985   -0.054225
     25          6           0       -3.143980   -1.135544   -0.317604
     26          6           0       -2.838127   -2.317369    0.363785
     27          1           0       -1.553887   -3.277398    1.807873
     28          1           0       -0.209383   -1.229996    2.239019
     29          1           0       -0.746799    0.895170    1.024549
     30          1           0       -3.954132   -1.078401   -1.034408
     31          1           0       -3.427178   -3.210004    0.173346
     32          7           0       -2.686425    1.252002   -0.769487
     33          8           0       -3.621908    1.231045   -1.566400
     34          8           0       -1.991339    2.234384   -0.519652
 ---------------------------------------------------------------------

 SCF Done:  E(RHF) =  -669.535368461     A.U. after   15 cycles
 E2 =    -0.2093320887D+01 EUMP2 =    -0.67162868934808D+03

 The electronic state is 1-A.
 Alpha  occ. eigenvalues --  -20.60850 -20.60845 -15.85897 -11.31239 -11.27809
 Alpha  occ. eigenvalues --  -11.27777 -11.27541 -11.26821 -11.26802 -11.21934
 Alpha  occ. eigenvalues --  -11.21700 -11.21617 -11.21594 -11.21351 -11.21024
 Alpha  occ. eigenvalues --   -1.59920  -1.39475  -1.19417  -1.08811  -1.08663
 Alpha  occ. eigenvalues --   -1.04816  -1.03702  -0.96152  -0.95651  -0.87170
 Alpha  occ. eigenvalues --   -0.86211  -0.82482  -0.79776  -0.78556  -0.77503
 Alpha  occ. eigenvalues --   -0.72116  -0.71241  -0.70530  -0.65336  -0.65060
 Alpha  occ. eigenvalues --   -0.64782  -0.62190  -0.61048  -0.59530  -0.57778
 Alpha  occ. eigenvalues --   -0.55437  -0.55313  -0.53168  -0.52905  -0.52813
 Alpha  occ. eigenvalues --   -0.52586  -0.50101  -0.48869  -0.48865  -0.48084
 Alpha  occ. eigenvalues --   -0.46786  -0.46030  -0.45943  -0.44878  -0.43971
 Alpha  occ. eigenvalues --   -0.37392  -0.36362
 Alpha virt. eigenvalues --    0.04953   0.11169   0.16403   0.20374   0.22934
 Alpha virt. eigenvalues --    0.23527   0.25835   0.26158   0.27207   0.28268
 Alpha virt. eigenvalues --    0.29392   0.30515   0.31460   0.31659   0.31877

 Mulliken charges:
               1
     1  C   -0.305797
     2  C   -0.299182
     3  C   -0.484966
     4  H    0.149298
     5  H    0.144045
     6  H    0.158613
     7  H    0.151776
     8  H    0.150104
     9  H    0.165893
    10  H    0.165505
    11  C   -0.297386
    12  C   -0.301925
    13  C   -0.475556
    14  H    0.153408
    15  H    0.150860
    16  H    0.152396
    17  H    0.147694
    18  H    0.156195
    19  H    0.157389
    20  H    0.158654
    21  C   -0.170970
    22  C   -0.220363
    23  C   -0.175180
    24  C    0.155353
    25  C   -0.170368
    26  C   -0.218690
    27  H    0.226165
    28  H    0.226612
    29  H    0.285592
    30  H    0.275732
    31  H    0.223717
    32  N    0.488083
    33  O   -0.459639
    34  O   -0.463063
 Sum of Mulliken charges =  -0.00000

 Dipole moment (field-independent basis, Debye):
    X=              1.0734    Y=             -4.3566    Z=              2.4218  Tot=              5.0987
 Quadrupole moment (field-independent basis, Debye-Ang):
   XX=            -97.2471   YY=            -94.3790   ZZ=            -94.4465
   XY=             13.2338   XZ=             -3.5193   YZ=              0.8291

 Normal termination of Gaussian 16 at Thu May  6 04:12:21 2021.
