 Gaussian 16, Revision A.03,
 Gaussian 16:  EM64L-G16RevA.03 25-Dec-2016

 -------------
 #p 6-31g* mp2
 -------------

 ------------------------------------------------------
 Input file generated by CHIRIPA (05-May-2021 14:57:22)
 ------------------------------------------------------
 Symbolic Z-matrix:
 Charge =  0 Multiplicity = 1

                         Standard orientation:
 ---------------------------------------------------------------------
 Center     Atomic      Atomic             Coordinates (Angstroms)
 Number     Number       Type             X           Y           Z
 ---------------------------------------------------------------------
      1          6           0       -3.732797    2.463436   -0.021366
      2          6           0       -2.452343    2.042562    0.352564
      3          6           0       -2.094741    0.693802    0.265866
      4          6           0       -3.046721   -0.211120   -0.201190
      5          6           0       -4.330457    0.177256   -0.581290
      6          6           0       -4.666122    1.531084   -0.486280
      7          1           0       -4.002070    3.513154    0.049212
      8          1           0       -1.725468    2.764419    0.713978
      9          1           0       -1.110505    0.340665    0.548692
     10          1           0       -5.033518   -0.565720   -0.937814
     11          1           0       -5.661278    1.855078   -0.777376
     12          7           0       -2.679756   -1.641674   -0.297373
     13          8           0       -3.536622   -2.419162   -0.712017
     14          8           0       -1.542210   -1.958367    0.043704
     15          6           0        1.301949   -0.920485    1.703386
     16          6           0        1.936285   -1.771306    0.792209
     17          6           0        2.937871   -1.285832   -0.053774
     18          6           0        3.281726    0.061953    0.038578
     19          6           0        2.668248    0.934674    0.935959
     20          6           0        1.669307    0.427413    1.772232
     21          1           0        0.524920   -1.306074    2.356794
     22          1           0        1.653038   -2.818549    0.736546
     23          1           0        3.445300   -1.922425   -0.768395
     24          1           0        2.972192    1.973901    0.968291
     25          1           0        1.178387    1.090487    2.478897
     26          7           0        4.340660    0.587435   -0.851886
     27          8           0        4.625370    1.778818   -0.750974
     28          8           0        4.865893   -0.202025   -1.633884
 ---------------------------------------------------------------------

 SCF Done:  E(RHF) =  -868.338959633     A.U. after   16 cycles
 E2 =    -0.2601559351D+01 EUMP2 =    -0.87094051898402D+03

 The electronic state is 1-A.
 Alpha  occ. eigenvalues --  -20.61508 -20.61442 -20.60654 -20.60632 -15.86518
 Alpha  occ. eigenvalues --  -15.85698 -11.31681 -11.31009 -11.28236 -11.28174
 Alpha  occ. eigenvalues --  -11.27958 -11.27690 -11.27474 -11.27231 -11.27212
 Alpha  occ. eigenvalues --  -11.27203 -11.26707 -11.26345  -1.60547  -1.59723
 Alpha  occ. eigenvalues --   -1.40110  -1.39278  -1.19848  -1.19184  -1.09282
 Alpha  occ. eigenvalues --   -1.08569  -1.05226  -1.04571  -0.96154  -0.95403
 Alpha  occ. eigenvalues --   -0.86637  -0.85955  -0.82994  -0.82238  -0.78072
 Alpha  occ. eigenvalues --   -0.77308  -0.72777  -0.71916  -0.71858  -0.71048
 Alpha  occ. eigenvalues --   -0.70957  -0.70209  -0.65509  -0.65244  -0.64812
 Alpha  occ. eigenvalues --   -0.64542  -0.62591  -0.61900  -0.55741  -0.54992
 Alpha  occ. eigenvalues --   -0.53567  -0.53450  -0.52749  -0.52634  -0.49506
 Alpha  occ. eigenvalues --   -0.49482  -0.48675  -0.48666  -0.45557  -0.44697
 Alpha  occ. eigenvalues --   -0.37823  -0.37098  -0.36823  -0.36165
 Alpha virt. eigenvalues --    0.04433   0.05222   0.10819   0.11354   0.15964
 Alpha virt. eigenvalues --    0.16711   0.20637   0.22015   0.26374   0.27785
 Alpha virt. eigenvalues --    0.28077   0.28984   0.30469   0.31513   0.32578

 Mulliken charges:
               1
     1  C   -0.169266
     2  C   -0.222698
     3  C   -0.177675
     4  C    0.154760
     5  C   -0.169182
     6  C   -0.219214
     7  H    0.227475
     8  H    0.222199
     9  H    0.284833
    10  H    0.276438
    11  H    0.225219
    12  N    0.490360
    13  O   -0.456795
    14  O   -0.471778
    15  C   -0.168585
    16  C   -0.207502
    17  C   -0.172525
    18  C    0.158011
    19  C   -0.172108
    20  C   -0.233311
    21  H    0.233317
    22  H    0.235161
    23  H    0.276893
    24  H    0.272442
    25  H    0.217666
    26  N    0.488187
    27  O   -0.463164
    28  O   -0.459158
 Sum of Mulliken charges =  -0.00000

 Dipole moment (field-independent basis, Debye):
    X=             -5.1430    Y=              2.8841    Z=              3.3915  Tot=              6.8023
 Quadrupole moment (field-independent basis, Debye-Ang):
   XX=           -117.7346   YY=           -103.0093   ZZ=           -104.7650
   XY=            -21.8551   XZ=             11.1239   YZ=              1.2575

 Normal termination of Gaussian 16 at Thu May  6 01:46:17 2021.
