 Gaussian 16, Revision A.03,
 Gaussian 16:  EM64L-G16RevA.03 25-Dec-2016

 -------------
 #p 6-31g* mp2
 -------------

 ------------------------------------------------------
 Input file generated by CHIRIPA (05-May-2021 14:53:14)
 ------------------------------------------------------
 Symbolic Z-matrix:
 Charge =  0 Multiplicity = 1

                         Standard orientation:
 ---------------------------------------------------------------------
 Center     Atomic      Atomic             Coordinates (Angstroms)
 Number     Number       Type             X           Y           Z
 ---------------------------------------------------------------------
      1          6           0        3.249796    1.249710    0.334617
      2          6           0        1.791102    1.362504   -0.109764
      3          6           0        1.127897    2.656972    0.361730
      4          1           0        3.298332    1.310196    1.430487
      5          1           0        3.811076    2.111985   -0.051184
      6          1           0        1.233040    0.499557    0.275599
      7          1           0        1.746015    1.301551   -1.204692
      8          1           0        1.659267    3.528456   -0.034203
      9          1           0        1.143378    2.721905    1.454499
     10          1           0        0.085673    2.716920    0.033040
     11          6           0        3.926447   -0.039021   -0.129109
     12          6           0        5.385141   -0.151815    0.315272
     13          6           0        6.048346   -1.446283   -0.156222
     14          1           0        3.365167   -0.901296    0.256692
     15          1           0        3.877911   -0.099507   -1.224979
     16          1           0        5.430228   -0.090862    1.410200
     17          1           0        5.943202    0.711132   -0.070092
     18          1           0        6.032865   -1.511216   -1.248991
     19          1           0        5.516976   -2.317767    0.239711
     20          1           0        7.090569   -1.506231    0.172468
     21          6           0       -4.491770    1.400290   -0.004219
     22          6           0       -3.240775    1.609063   -0.594090
     23          6           0       -2.297421    0.578361   -0.641868
     24          6           0       -2.639977   -0.654021   -0.087629
     25          6           0       -3.877980   -0.893027    0.506942
     26          6           0       -4.805825    0.152112    0.543449
     27          1           0       -5.218566    2.206573    0.028518
     28          1           0       -2.994133    2.577379   -1.020210
     29          1           0       -1.321536    0.712631   -1.092466
     30          1           0       -4.094944   -1.869217    0.923355
     31          1           0       -5.776588   -0.012892    1.002186
     32          7           0       -1.649499   -1.752821   -0.132243
     33          8           0       -1.975691   -2.829328    0.363104
     34          8           0       -0.565724   -1.516749   -0.661714
 ---------------------------------------------------------------------

 SCF Done:  E(RHF) =  -669.535841061     A.U. after   15 cycles
 E2 =    -0.2092353256D+01 EUMP2 =    -0.67162819431692D+03

 The electronic state is 1-A.
 Alpha  occ. eigenvalues --  -20.60899 -20.60891 -15.85924 -11.31237 -11.27817
 Alpha  occ. eigenvalues --  -11.27783 -11.27549 -11.26819 -11.26807 -11.21148
 Alpha  occ. eigenvalues --  -11.21088 -11.21078 -11.20946 -11.20716 -11.20537
 Alpha  occ. eigenvalues --   -1.59961  -1.39516  -1.19415  -1.08820  -1.07943
 Alpha  occ. eigenvalues --   -1.04812  -1.03142  -0.95683  -0.95601  -0.86631
 Alpha  occ. eigenvalues --   -0.86208  -0.82498  -0.79184  -0.77766  -0.77490
 Alpha  occ. eigenvalues --   -0.72148  -0.71275  -0.70525  -0.65072  -0.64817
 Alpha  occ. eigenvalues --   -0.64564  -0.62194  -0.60529  -0.59001  -0.57225
 Alpha  occ. eigenvalues --   -0.55308  -0.54899  -0.53151  -0.52897  -0.52341
 Alpha  occ. eigenvalues --   -0.52026  -0.49541  -0.48937  -0.48907  -0.47486
 Alpha  occ. eigenvalues --   -0.46215  -0.45330  -0.45232  -0.44705  -0.43378
 Alpha  occ. eigenvalues --   -0.37394  -0.36397
 Alpha virt. eigenvalues --    0.04916   0.11217   0.16350   0.20488   0.23362
 Alpha virt. eigenvalues --    0.24191   0.26441   0.27196   0.27608   0.28285
 Alpha virt. eigenvalues --    0.29247   0.30423   0.31673   0.31847   0.32816

 Mulliken charges:
               1
     1  C   -0.298309
     2  C   -0.308873
     3  C   -0.475837
     4  H    0.148219
     5  H    0.145983
     6  H    0.171780
     7  H    0.149298
     8  H    0.154193
     9  H    0.156751
    10  H    0.146043
    11  C   -0.299390
    12  C   -0.299557
    13  C   -0.475577
    14  H    0.159537
    15  H    0.150091
    16  H    0.150567
    17  H    0.149152
    18  H    0.155039
    19  H    0.157957
    20  H    0.157939
    21  C   -0.170346
    22  C   -0.220314
    23  C   -0.172545
    24  C    0.156493
    25  C   -0.170592
    26  C   -0.218747
    27  H    0.225958
    28  H    0.224389
    29  H    0.282803
    30  H    0.275608
    31  H    0.223654
    32  N    0.488076
    33  O   -0.459460
    34  O   -0.459981
 Sum of Mulliken charges =  -0.00000

 Dipole moment (field-independent basis, Debye):
    X=             -3.5694    Y=              3.6593    Z=              0.1705  Tot=              5.1147
 Quadrupole moment (field-independent basis, Debye-Ang):
   XX=            -75.1338   YY=            -99.4637   ZZ=            -93.7305
   XY=             -5.5145   XZ=             -2.0106   YZ=             -2.7414

 Normal termination of Gaussian 16 at Wed May  5 18:38:22 2021.
