 Gaussian 16, Revision A.03,
 Gaussian 16:  EM64L-G16RevA.03 25-Dec-2016

 -------------
 #p 6-31g* mp2
 -------------

 ------------------------------------------------------
 Input file generated by CHIRIPA (05-May-2021 14:55:23)
 ------------------------------------------------------
 Symbolic Z-matrix:
 Charge =  0 Multiplicity = 1

                         Standard orientation:
 ---------------------------------------------------------------------
 Center     Atomic      Atomic             Coordinates (Angstroms)
 Number     Number       Type             X           Y           Z
 ---------------------------------------------------------------------
      1          6           0       -4.099197    1.552246    0.975301
      2          6           0       -4.716001    0.305675    0.826520
      3          6           0       -4.015480   -0.771997    0.276574
      4          6           0       -2.693615   -0.566809   -0.115677
      5          6           0       -2.051428    0.663061    0.019621
      6          6           0       -2.771221    1.726652    0.572088
      7          1           0       -4.650864    2.383938    1.403491
      8          1           0       -5.747212    0.167322    1.138783
      9          1           0       -4.468592   -1.747744    0.149978
     10          1           0       -1.022267    0.770355   -0.300899
     11          1           0       -2.289645    2.693635    0.686437
     12          7           0       -1.941804   -1.700240   -0.699214
     13          8           0       -0.778252   -1.493615   -1.036988
     14          8           0       -2.530321   -2.773785   -0.807768
     15          6           0        2.950917    0.877090    0.058194
     16          6           0        2.909697    2.074269   -0.892095
     17          6           0        1.591974    2.845836   -0.814097
     18          1           0        2.115326    0.203023   -0.174973
     19          1           0        2.791169    1.228709    1.086901
     20          1           0        3.070856    1.720665   -1.918549
     21          1           0        3.745595    2.745468   -0.656763
     22          1           0        1.427673    3.226199    0.199279
     23          1           0        0.749099    2.195573   -1.069676
     24          1           0        1.584091    3.697435   -1.501538
     25          6           0        4.261941    0.095727   -0.008265
     26          6           0        4.303161   -1.101453    0.942023
     27          6           0        5.620884   -1.873019    0.864025
     28          1           0        4.421690   -0.255893   -1.036972
     29          1           0        5.097532    0.769794    0.224902
     30          1           0        3.467263   -1.772652    0.706692
     31          1           0        4.142002   -0.747848    1.968477
     32          1           0        6.463759   -1.222756    1.119604
     33          1           0        5.785185   -2.253382   -0.149351
     34          1           0        5.628767   -2.724619    1.551466
 ---------------------------------------------------------------------

 SCF Done:  E(RHF) =  -669.535987266     A.U. after   15 cycles
 E2 =    -0.2091468917D+01 EUMP2 =    -0.67162745618300D+03

 The electronic state is 1-A.
 Alpha  occ. eigenvalues --  -20.60830 -20.60823 -15.85873 -11.31178 -11.27750
 Alpha  occ. eigenvalues --  -11.27717 -11.27485 -11.26760 -11.26732 -11.21638
 Alpha  occ. eigenvalues --  -11.21527 -11.21177 -11.21152 -11.21049 -11.20685
 Alpha  occ. eigenvalues --   -1.59896  -1.39452  -1.19350  -1.08758  -1.08223
 Alpha  occ. eigenvalues --   -1.04745  -1.03408  -0.95888  -0.95601  -0.86918
 Alpha  occ. eigenvalues --   -0.86147  -0.82433  -0.79483  -0.78005  -0.77479
 Alpha  occ. eigenvalues --   -0.72095  -0.71213  -0.70472  -0.65005  -0.64880
 Alpha  occ. eigenvalues --   -0.64714  -0.62129  -0.60783  -0.59270  -0.57479
 Alpha  occ. eigenvalues --   -0.55310  -0.55133  -0.53079  -0.52860  -0.52602
 Alpha  occ. eigenvalues --   -0.52306  -0.49838  -0.48850  -0.48843  -0.47795
 Alpha  occ. eigenvalues --   -0.46472  -0.45556  -0.45418  -0.44862  -0.43622
 Alpha  occ. eigenvalues --   -0.37334  -0.36344
 Alpha virt. eigenvalues --    0.05031   0.11299   0.16534   0.20009   0.23077
 Alpha virt. eigenvalues --    0.23988   0.25787   0.26710   0.27650   0.28215
 Alpha virt. eigenvalues --    0.29792   0.30099   0.31511   0.31854   0.32246

 Mulliken charges:
               1
     1  C   -0.170524
     2  C   -0.219018
     3  C   -0.170119
     4  C    0.159147
     5  C   -0.180554
     6  C   -0.222454
     7  H    0.225629
     8  H    0.223394
     9  H    0.275440
    10  H    0.288336
    11  H    0.225009
    12  N    0.487837
    13  O   -0.462865
    14  O   -0.459715
    15  C   -0.306146
    16  C   -0.298146
    17  C   -0.481975
    18  H    0.163985
    19  H    0.145295
    20  H    0.156471
    21  H    0.151966
    22  H    0.151334
    23  H    0.151739
    24  H    0.162585
    25  C   -0.297892
    26  C   -0.301589
    27  C   -0.475745
    28  H    0.152239
    29  H    0.147155
    30  H    0.160424
    31  H    0.149170
    32  H    0.152910
    33  H    0.156424
    34  H    0.160252
 Sum of Mulliken charges =  -0.00000

 Dipole moment (field-independent basis, Debye):
    X=             -2.6195    Y=              3.9005    Z=              2.0036  Tot=              5.1079
 Quadrupole moment (field-independent basis, Debye-Ang):
   XX=            -78.0680   YY=            -98.1985   ZZ=            -95.5296
   XY=             -6.0461   XZ=             -5.9406   YZ=             -1.4896

 Normal termination of Gaussian 16 at Thu May  6 01:30:51 2021.
