 Gaussian 16, Revision A.03,
 Gaussian 16:  EM64L-G16RevA.03 25-Dec-2016

 -------------
 #p 6-31g* mp2
 -------------

 ------------------------------------------------------
 Input file generated by CHIRIPA (05-May-2021 14:53:11)
 ------------------------------------------------------
 Symbolic Z-matrix:
 Charge =  0 Multiplicity = 1

                         Standard orientation:
 ---------------------------------------------------------------------
 Center     Atomic      Atomic             Coordinates (Angstroms)
 Number     Number       Type             X           Y           Z
 ---------------------------------------------------------------------
      1          6           0        3.438626    1.144408   -0.333140
      2          6           0        2.029817    1.734354   -0.405282
      3          6           0        2.031013    3.262212   -0.463937
      4          1           0        3.952743    1.546296    0.550668
      5          1           0        4.013639    1.478234   -1.207963
      6          1           0        1.457199    1.398391    0.468706
      7          1           0        1.518927    1.330867   -1.288915
      8          1           0        2.578727    3.613502   -1.344395
      9          1           0        2.516648    3.681410    0.423212
     10          1           0        1.013777    3.662808   -0.515053
     11          6           0        3.453913   -0.382023   -0.273961
     12          6           0        4.862722   -0.971969   -0.201819
     13          6           0        4.861526   -2.499827   -0.143164
     14          1           0        2.878900   -0.715849    0.600862
     15          1           0        2.939796   -0.783911   -1.157768
     16          1           0        5.373612   -0.568482    0.681814
     17          1           0        5.435340   -0.636006   -1.075806
     18          1           0        4.375891   -2.919025   -1.030313
     19          1           0        4.313812   -2.851117    0.737294
     20          1           0        5.878762   -2.900423   -0.092048
     21          6           0       -0.507954   -0.292548    1.499724
     22          6           0       -1.334043    0.835919    1.525432
     23          6           0       -2.546591    0.844201    0.829583
     24          6           0       -2.903582   -0.298315    0.115087
     25          6           0       -2.102152   -1.438042    0.070142
     26          6           0       -0.893964   -1.423932    0.773442
     27          1           0        0.432290   -0.290285    2.043170
     28          1           0       -1.036815    1.715981    2.088629
     29          1           0       -3.205201    1.704227    0.832426
     30          1           0       -2.425342   -2.300430   -0.500167
     31          1           0       -0.254412   -2.301739    0.751689
     32          7           0       -4.184945   -0.301399   -0.625521
     33          8           0       -4.476743   -1.320538   -1.247490
     34          8           0       -4.873215    0.715380   -0.570016
 ---------------------------------------------------------------------

 SCF Done:  E(RHF) =  -669.534349289     A.U. after   15 cycles
 E2 =    -0.2093214980D+01 EUMP2 =    -0.67162756426918D+03

 The electronic state is 1-A.
 Alpha  occ. eigenvalues --  -20.60762 -20.60756 -15.85817 -11.31180 -11.27764
 Alpha  occ. eigenvalues --  -11.27760 -11.27506 -11.26769 -11.26754 -11.22303
 Alpha  occ. eigenvalues --  -11.22221 -11.22169 -11.22046 -11.21757 -11.21645
 Alpha  occ. eigenvalues --   -1.59838  -1.39391  -1.19367  -1.09158  -1.08759
 Alpha  occ. eigenvalues --   -1.04769  -1.04192  -0.96655  -0.95603  -0.87666
 Alpha  occ. eigenvalues --   -0.86170  -0.82433  -0.80257  -0.78980  -0.77466
 Alpha  occ. eigenvalues --   -0.72036  -0.71162  -0.70515  -0.65800  -0.65023
 Alpha  occ. eigenvalues --   -0.64762  -0.62122  -0.61594  -0.60022  -0.58264
 Alpha  occ. eigenvalues --   -0.55958  -0.55301  -0.53363  -0.53137  -0.53026
 Alpha  occ. eigenvalues --   -0.52859  -0.50601  -0.48794  -0.48790  -0.48565
 Alpha  occ. eigenvalues --   -0.47306  -0.46506  -0.46434  -0.44798  -0.44465
 Alpha  occ. eigenvalues --   -0.37232  -0.36362
 Alpha virt. eigenvalues --    0.05036   0.11173   0.16431   0.19592   0.22878
 Alpha virt. eigenvalues --    0.23435   0.25239   0.26370   0.26944   0.27581
 Alpha virt. eigenvalues --    0.29960   0.30673   0.31034   0.31243   0.31711

 Mulliken charges:
               1
     1  C   -0.299220
     2  C   -0.301059
     3  C   -0.476725
     4  H    0.148504
     5  H    0.152847
     6  H    0.147323
     7  H    0.156469
     8  H    0.158427
     9  H    0.153200
    10  H    0.160719
    11  C   -0.297228
    12  C   -0.299993
    13  C   -0.475881
    14  H    0.137792
    15  H    0.152634
    16  H    0.152499
    17  H    0.155313
    18  H    0.156256
    19  H    0.151448
    20  H    0.163343
    21  C   -0.168599
    22  C   -0.216723
    23  C   -0.171337
    24  C    0.158252
    25  C   -0.171127
    26  C   -0.219482
    27  H    0.226191
    28  H    0.223759
    29  H    0.275600
    30  H    0.275659
    31  H    0.224081
    32  N    0.488099
    33  O   -0.460524
    34  O   -0.460519
 Sum of Mulliken charges =  -0.00000

 Dipole moment (field-independent basis, Debye):
    X=              4.5887    Y=              0.0179    Z=              2.5048  Tot=              5.2278
 Quadrupole moment (field-independent basis, Debye-Ang):
   XX=           -121.2669   YY=            -91.6909   ZZ=            -93.2975
   XY=             -2.2435   XZ=             -7.7946   YZ=              0.9507

 Normal termination of Gaussian 16 at Wed May  5 16:56:47 2021.
