 Gaussian 16, Revision A.03,
 Gaussian 16:  EM64L-G16RevA.03 25-Dec-2016

 -------------
 #p 6-31g* mp2
 -------------

 ------------------------------------------------------
 Input file generated by CHIRIPA (05-May-2021 14:57:24)
 ------------------------------------------------------
 Symbolic Z-matrix:
 Charge =  0 Multiplicity = 1

                         Standard orientation:
 ---------------------------------------------------------------------
 Center     Atomic      Atomic             Coordinates (Angstroms)
 Number     Number       Type             X           Y           Z
 ---------------------------------------------------------------------
      1          6           0        5.332010    1.690609    0.294734
      2          6           0        4.351467    1.808935   -0.695747
      3          6           0        3.394463    0.804947   -0.870961
      4          6           0        3.447737   -0.308781   -0.034264
      5          6           0        4.412163   -0.455692    0.961522
      6          6           0        5.359181    0.560665    1.118755
      7          1           0        6.071556    2.475335    0.423861
      8          1           0        4.327942    2.685348   -1.337145
      9          1           0        2.624317    0.870945   -1.629866
     10          1           0        4.410076   -1.341100    1.585594
     11          1           0        6.119527    0.466088    1.888803
     12          7           0        2.439885   -1.378205   -0.210237
     13          8           0        2.508379   -2.349476    0.539815
     14          8           0        1.600521   -1.224900   -1.094885
     15          6           0       -3.150717   -2.336794   -0.226884
     16          6           0       -2.335101   -1.407149   -0.880376
     17          6           0       -2.582357   -0.036511   -0.758861
     18          6           0       -3.658616    0.371252    0.027704
     19          6           0       -4.489278   -0.530478    0.691162
     20          6           0       -4.223311   -1.896268    0.555420
     21          1           0       -2.951376   -3.399656   -0.326807
     22          1           0       -1.501407   -1.746386   -1.488584
     23          1           0       -1.966855    0.704807   -1.253859
     24          1           0       -5.312932   -0.161957    1.290498
     25          1           0       -4.858398   -2.615977    1.064073
     26          7           0       -3.930278    1.819719    0.163878
     27          8           0       -4.884723    2.153334    0.862715
     28          8           0       -3.183618    2.593985   -0.430805
 ---------------------------------------------------------------------

 SCF Done:  E(RHF) =  -868.340402934     A.U. after   16 cycles
 E2 =    -0.2598217230D+01 EUMP2 =    -0.87093862016339D+03

 The electronic state is 1-A.
 Alpha  occ. eigenvalues --  -20.61480 -20.61447 -20.60182 -20.60175 -15.86496
 Alpha  occ. eigenvalues --  -15.85222 -11.31573 -11.30343 -11.28109 -11.28104
 Alpha  occ. eigenvalues --  -11.27791 -11.27059 -11.27042 -11.26898 -11.26786
 Alpha  occ. eigenvalues --  -11.26489 -11.25891 -11.25608  -1.60524  -1.59260
 Alpha  occ. eigenvalues --   -1.40088  -1.38821  -1.19716  -1.18462  -1.09164
 Alpha  occ. eigenvalues --   -1.07896  -1.05076  -1.03803  -0.96050  -0.94783
 Alpha  occ. eigenvalues --   -0.86489  -0.85211  -0.82897  -0.81609  -0.77973
 Alpha  occ. eigenvalues --   -0.76695  -0.72741  -0.71818  -0.71449  -0.70824
 Alpha  occ. eigenvalues --   -0.70578  -0.69566  -0.65376  -0.65077  -0.64099
 Alpha  occ. eigenvalues --   -0.63761  -0.62430  -0.61141  -0.55587  -0.54306
 Alpha  occ. eigenvalues --   -0.53417  -0.53166  -0.52174  -0.51864  -0.49495
 Alpha  occ. eigenvalues --   -0.49453  -0.48217  -0.48176  -0.45554  -0.44281
 Alpha  occ. eigenvalues --   -0.37676  -0.36664  -0.36428  -0.35395
 Alpha virt. eigenvalues --    0.04540   0.05793   0.10994   0.12254   0.16090
 Alpha virt. eigenvalues --    0.17374   0.21132   0.22479   0.27067   0.27811
 Alpha virt. eigenvalues --    0.28592   0.29225   0.30780   0.32026   0.32264

 Mulliken charges:
               1
     1  C   -0.169673
     2  C   -0.217991
     3  C   -0.169701
     4  C    0.158102
     5  C   -0.170344
     6  C   -0.218434
     7  H    0.227694
     8  H    0.226112
     9  H    0.274183
    10  H    0.275629
    11  H    0.224812
    12  N    0.491139
    13  O   -0.458436
    14  O   -0.471105
    15  C   -0.171694
    16  C   -0.218601
    17  C   -0.173642
    18  C    0.157826
    19  C   -0.173511
    20  C   -0.218624
    21  H    0.226710
    22  H    0.243445
    23  H    0.272670
    24  H    0.271964
    25  H    0.220269
    26  N    0.488276
    27  O   -0.463042
    28  O   -0.464033
 Sum of Mulliken charges =  -0.00000

 Dipole moment (field-independent basis, Debye):
    X=              4.9593    Y=             -1.4276    Z=              0.1029  Tot=              5.1617
 Quadrupole moment (field-independent basis, Debye-Ang):
   XX=            -84.6440   YY=           -110.3699   ZZ=           -101.2297
   XY=             31.6241   XZ=              3.4090   YZ=             -3.5292

 Normal termination of Gaussian 16 at Fri May  7 12:35:27 2021.
