 Gaussian 16, Revision A.03,
 Gaussian 16:  EM64L-G16RevA.03 25-Dec-2016

 -------------
 #p 6-31g* mp2
 -------------

 ------------------------------------------------------
 Input file generated by CHIRIPA (05-May-2021 14:53:12)
 ------------------------------------------------------
 Symbolic Z-matrix:
 Charge =  0 Multiplicity = 1

                         Standard orientation:
 ---------------------------------------------------------------------
 Center     Atomic      Atomic             Coordinates (Angstroms)
 Number     Number       Type             X           Y           Z
 ---------------------------------------------------------------------
      1          6           0       -3.700183   -0.283519   -0.418812
      2          6           0       -2.933630   -1.532566    0.017382
      3          6           0       -1.646735   -1.745076   -0.780449
      4          1           0       -3.938900   -0.362395   -1.488268
      5          1           0       -3.049522    0.594946   -0.307748
      6          1           0       -3.586005   -2.408239   -0.093164
      7          1           0       -2.696877   -1.450794    1.085969
      8          1           0       -0.973962   -0.889619   -0.661407
      9          1           0       -1.868141   -1.852503   -1.847238
     10          1           0       -1.114621   -2.643409   -0.452252
     11          6           0       -4.989030   -0.057559    0.369569
     12          6           0       -5.755582    1.191487   -0.066624
     13          6           0       -7.042477    1.403997    0.731207
     14          1           0       -5.639690   -0.936024    0.258506
     15          1           0       -4.750312    0.021316    1.439026
     16          1           0       -5.992335    1.109716   -1.135211
     17          1           0       -5.103208    2.067160    0.043921
     18          1           0       -6.821071    1.511425    1.797996
     19          1           0       -7.715251    0.548540    0.612164
     20          1           0       -7.574591    2.302330    0.403010
     21          6           0        2.745623   -2.298703    0.195086
     22          6           0        2.031302   -1.443065   -0.649989
     23          6           0        2.381821   -0.093773   -0.755316
     24          6           0        3.456928    0.368344    0.002235
     25          6           0        4.188078   -0.459206    0.853039
     26          6           0        3.819837   -1.804913    0.942585
     27          1           0        2.466447   -3.345473    0.270777
     28          1           0        1.196606   -1.823788   -1.231691
     29          1           0        1.845986    0.590642   -1.401748
     30          1           0        5.015429   -0.050585    1.420436
     31          1           0        4.376387   -2.467105    1.599698
     32          7           0        3.837388    1.794883   -0.100917
     33          8           0        4.788541    2.177441    0.577017
     34          8           0        3.177235    2.503432   -0.857747
 ---------------------------------------------------------------------

 SCF Done:  E(RHF) =  -669.534827150     A.U. after   15 cycles
 E2 =    -0.2091626559D+01 EUMP2 =    -0.67162645370917D+03

 The electronic state is 1-A.
 Alpha  occ. eigenvalues --  -20.60730 -20.60725 -15.85781 -11.31136 -11.27689
 Alpha  occ. eigenvalues --  -11.27670 -11.27411 -11.26720 -11.26605 -11.22252
 Alpha  occ. eigenvalues --  -11.22051 -11.21835 -11.21816 -11.21688 -11.21236
 Alpha  occ. eigenvalues --   -1.59806  -1.39360  -1.19295  -1.08860  -1.08691
 Alpha  occ. eigenvalues --   -1.04698  -1.04009  -0.96499  -0.95533  -0.87555
 Alpha  occ. eigenvalues --   -0.86077  -0.82368  -0.80104  -0.78631  -0.77407
 Alpha  occ. eigenvalues --   -0.72000  -0.71129  -0.70405  -0.65491  -0.64944
 Alpha  occ. eigenvalues --   -0.64707  -0.62100  -0.61363  -0.59881  -0.58075
 Alpha  occ. eigenvalues --   -0.55791  -0.55191  -0.53410  -0.53020  -0.52933
 Alpha  occ. eigenvalues --   -0.52557  -0.50398  -0.48757  -0.48755  -0.48398
 Alpha  occ. eigenvalues --   -0.47084  -0.46184  -0.46074  -0.44768  -0.44250
 Alpha  occ. eigenvalues --   -0.37272  -0.36268
 Alpha virt. eigenvalues --    0.05088   0.11338   0.16521   0.20950   0.22515
 Alpha virt. eigenvalues --    0.23971   0.26060   0.26184   0.26843   0.27816
 Alpha virt. eigenvalues --    0.28753   0.30271   0.30772   0.31244   0.32015

 Mulliken charges:
               1
     1  C   -0.299777
     2  C   -0.299587
     3  C   -0.482329
     4  H    0.150177
     5  H    0.152115
     6  H    0.153457
     7  H    0.154744
     8  H    0.156425
     9  H    0.156680
    10  H    0.153587
    11  C   -0.298843
    12  C   -0.300276
    13  C   -0.476011
    14  H    0.149600
    15  H    0.150697
    16  H    0.152241
    17  H    0.153864
    18  H    0.155764
    19  H    0.154992
    20  H    0.161583
    21  C   -0.173941
    22  C   -0.219786
    23  C   -0.175200
    24  C    0.158957
    25  C   -0.171658
    26  C   -0.218215
    27  H    0.225011
    28  H    0.235430
    29  H    0.275204
    30  H    0.275248
    31  H    0.223059
    32  N    0.488060
    33  O   -0.460606
    34  O   -0.460665
 Sum of Mulliken charges =  -0.00000

 Dipole moment (field-independent basis, Debye):
    X=             -1.5174    Y=             -5.0036    Z=              0.3880  Tot=              5.2431
 Quadrupole moment (field-independent basis, Debye-Ang):
   XX=           -101.8742   YY=            -98.8781   ZZ=            -92.8807
   XY=            -18.2252   XZ=              4.8569   YZ=             -0.2471

 Normal termination of Gaussian 16 at Thu May  6 08:50:39 2021.
