 Gaussian 16, Revision A.03,
 Gaussian 16:  EM64L-G16RevA.03 25-Dec-2016

 -------------
 #p 6-31g* mp2
 -------------

 ------------------------------------------------------
 Input file generated by CHIRIPA (05-May-2021 14:53:12)
 ------------------------------------------------------
 Symbolic Z-matrix:
 Charge =  0 Multiplicity = 1

                         Standard orientation:
 ---------------------------------------------------------------------
 Center     Atomic      Atomic             Coordinates (Angstroms)
 Number     Number       Type             X           Y           Z
 ---------------------------------------------------------------------
      1          6           0       -4.954723    0.244243   -0.356954
      2          6           0       -5.613579   -1.120299   -0.152213
      3          6           0       -6.846527   -1.319735   -1.034175
      4          1           0       -5.689007    1.034030   -0.147172
      5          1           0       -4.672418    0.352519   -1.413351
      6          1           0       -5.893308   -1.226529    0.903762
      7          1           0       -4.877586   -1.906928   -0.362321
      8          1           0       -6.579691   -1.240387   -2.092997
      9          1           0       -7.601184   -0.556122   -0.819720
     10          1           0       -7.301775   -2.301677   -0.871700
     11          6           0       -3.720789    0.458550    0.517807
     12          6           0       -3.061934    1.823093    0.313066
     13          6           0       -1.828985    2.022528    1.195028
     14          1           0       -4.003094    0.350275    1.574204
     15          1           0       -2.986505   -0.331237    0.308025
     16          1           0       -3.797926    2.609722    0.523174
     17          1           0       -2.782204    1.929323   -0.742909
     18          1           0       -1.074328    1.258916    0.980573
     19          1           0       -2.095821    1.943180    2.253849
     20          1           0       -1.373737    3.004471    1.032552
     21          6           0        0.993368   -0.844963    0.486793
     22          6           0        1.279794    0.223418   -0.369386
     23          6           0        2.603360    0.548506   -0.680899
     24          6           0        3.620461   -0.219381   -0.115969
     25          6           0        3.367214   -1.289772    0.740430
     26          6           0        2.036154   -1.596822    1.037997
     27          1           0       -0.037721   -1.090494    0.723367
     28          1           0        0.471974    0.809060   -0.798916
     29          1           0        2.853449    1.370373   -1.340753
     30          1           0        4.193786   -1.855256    1.153255
     31          1           0        1.816683   -2.427090    1.703229
     32          7           0        5.025627    0.115227   -0.438371
     33          8           0        5.903714   -0.576743    0.072294
     34          8           0        5.222303    1.063127   -1.195630
 ---------------------------------------------------------------------

 SCF Done:  E(RHF) =  -669.534663849     A.U. after   15 cycles
 E2 =    -0.2092319771D+01 EUMP2 =    -0.67162698362052D+03

 The electronic state is 1-A.
 Alpha  occ. eigenvalues --  -20.60757 -20.60752 -15.85810 -11.31185 -11.27749
 Alpha  occ. eigenvalues --  -11.27740 -11.27487 -11.26767 -11.26739 -11.22588
 Alpha  occ. eigenvalues --  -11.22407 -11.22299 -11.22162 -11.22074 -11.21635
 Alpha  occ. eigenvalues --   -1.59832  -1.39385  -1.19357  -1.09315  -1.08756
 Alpha  occ. eigenvalues --   -1.04764  -1.04371  -0.96827  -0.95588  -0.87842
 Alpha  occ. eigenvalues --   -0.86162  -0.82416  -0.80441  -0.79117  -0.77462
 Alpha  occ. eigenvalues --   -0.72030  -0.71154  -0.70487  -0.65989  -0.65015
 Alpha  occ. eigenvalues --   -0.64788  -0.62207  -0.61662  -0.60192  -0.58422
 Alpha  occ. eigenvalues --   -0.56134  -0.55271  -0.53496  -0.53313  -0.53017
 Alpha  occ. eigenvalues --   -0.52836  -0.50746  -0.48796  -0.48785  -0.48730
 Alpha  occ. eigenvalues --   -0.47483  -0.46656  -0.46569  -0.44789  -0.44626
 Alpha  occ. eigenvalues --   -0.37313  -0.36347
 Alpha virt. eigenvalues --    0.05055   0.11187   0.16534   0.18835   0.22668
 Alpha virt. eigenvalues --    0.23848   0.24649   0.25970   0.26999   0.27865
 Alpha virt. eigenvalues --    0.29284   0.29835   0.30944   0.31325   0.31554

 Mulliken charges:
               1
     1  C   -0.298683
     2  C   -0.300064
     3  C   -0.476183
     4  H    0.152756
     5  H    0.150376
     6  H    0.152903
     7  H    0.150438
     8  H    0.156110
     9  H    0.156654
    10  H    0.161970
    11  C   -0.298165
    12  C   -0.301899
    13  C   -0.481908
    14  H    0.152477
    15  H    0.140439
    16  H    0.157395
    17  H    0.149810
    18  H    0.149680
    19  H    0.159687
    20  H    0.164619
    21  C   -0.173114
    22  C   -0.218371
    23  C   -0.172261
    24  C    0.158392
    25  C   -0.170891
    26  C   -0.219297
    27  H    0.228166
    28  H    0.226535
    29  H    0.275713
    30  H    0.275617
    31  H    0.223747
    32  N    0.488094
    33  O   -0.460395
    34  O   -0.460348
 Sum of Mulliken charges =  -0.00000

 Dipole moment (field-independent basis, Debye):
    X=             -5.1272    Y=             -1.1248    Z=              1.1620  Tot=              5.3762
 Quadrupole moment (field-independent basis, Debye-Ang):
   XX=           -130.1983   YY=            -91.4740   ZZ=            -93.6066
   XY=             -5.2285   XZ=              4.7673   YZ=             -2.4817

 Normal termination of Gaussian 16 at Wed May  5 15:28:51 2021.
