 Gaussian 16, Revision A.03,
 Gaussian 16:  EM64L-G16RevA.03 25-Dec-2016

 -------------
 #p 6-31g* mp2
 -------------

 ------------------------------------------------------
 Input file generated by CHIRIPA (05-May-2021 14:55:21)
 ------------------------------------------------------
 Symbolic Z-matrix:
 Charge =  0 Multiplicity = 1

                         Standard orientation:
 ---------------------------------------------------------------------
 Center     Atomic      Atomic             Coordinates (Angstroms)
 Number     Number       Type             X           Y           Z
 ---------------------------------------------------------------------
      1          6           0        0.575499   -0.049131    1.010402
      2          6           0        1.660017   -0.178944    1.884181
      3          6           0        2.967013   -0.231773    1.390708
      4          6           0        3.153903   -0.151656    0.011598
      5          6           0        2.093989   -0.021962   -0.884534
      6          6           0        0.795558    0.028808   -0.368736
      7          1           0       -0.436481   -0.008892    1.402415
      8          1           0        1.492108   -0.239700    2.955704
      9          1           0        3.824804   -0.331953    2.044602
     10          1           0        2.292907    0.036201   -1.947768
     11          1           0       -0.044785    0.129655   -1.049689
     12          7           0        4.533028   -0.206493   -0.522637
     13          8           0        4.671051   -0.133883   -1.741782
     14          8           0        5.449849   -0.321048    0.287890
     15          6           0       -3.195629    0.704318   -0.036878
     16          6           0       -3.691352    2.142229   -0.193910
     17          6           0       -2.578636    3.174574   -0.009731
     18          1           0       -2.744126    0.585412    0.957582
     19          1           0       -2.396345    0.517570   -0.767401
     20          1           0       -4.490415    2.325778    0.535763
     21          1           0       -4.141901    2.257673   -1.188041
     22          1           0       -1.783756    3.019821   -0.746493
     23          1           0       -2.134252    3.088312    0.987105
     24          1           0       -2.955043    4.195661   -0.126173
     25          6           0       -4.296483   -0.339217   -0.218218
     26          6           0       -3.800761   -1.777127   -0.061184
     27          6           0       -4.913476   -2.809472   -0.245365
     28          1           0       -5.095768   -0.152469    0.512307
     29          1           0       -4.747987   -0.220310   -1.212678
     30          1           0       -3.350213   -1.892572    0.932946
     31          1           0       -3.001698   -1.960676   -0.790858
     32          1           0       -5.357862   -2.723211   -1.242201
     33          1           0       -5.708357   -2.654719    0.491397
     34          1           0       -4.537070   -3.830558   -0.128922
 ---------------------------------------------------------------------

 SCF Done:  E(RHF) =  -669.535011705     A.U. after   15 cycles
 E2 =    -0.2092535381D+01 EUMP2 =    -0.67162754708548D+03

 The electronic state is 1-A.
 Alpha  occ. eigenvalues --  -20.60684 -20.60678 -15.85737 -11.31074 -11.27649
 Alpha  occ. eigenvalues --  -11.27643 -11.27318 -11.26643 -11.26613 -11.22811
 Alpha  occ. eigenvalues --  -11.22629 -11.22596 -11.22426 -11.21999 -11.21832
 Alpha  occ. eigenvalues --   -1.59760  -1.39314  -1.19242  -1.09562  -1.08631
 Alpha  occ. eigenvalues --   -1.04648  -1.04508  -0.96967  -0.95476  -0.87974
 Alpha  occ. eigenvalues --   -0.86046  -0.82318  -0.80587  -0.79445  -0.77368
 Alpha  occ. eigenvalues --   -0.71955  -0.71083  -0.70340  -0.66211  -0.64890
 Alpha  occ. eigenvalues --   -0.64658  -0.62038  -0.61869  -0.60328  -0.58585
 Alpha  occ. eigenvalues --   -0.56282  -0.55140  -0.53592  -0.53385  -0.52971
 Alpha  occ. eigenvalues --   -0.52748  -0.50896  -0.48885  -0.48719  -0.48712
 Alpha  occ. eigenvalues --   -0.47617  -0.46889  -0.46838  -0.44814  -0.44726
 Alpha  occ. eigenvalues --   -0.37204  -0.36255
 Alpha virt. eigenvalues --    0.05164   0.11360   0.16646   0.19232   0.22697
 Alpha virt. eigenvalues --    0.23043   0.23627   0.25282   0.27061   0.28427
 Alpha virt. eigenvalues --    0.30039   0.30576   0.30849   0.31238   0.31393

 Mulliken charges:
               1
     1  C   -0.174637
     2  C   -0.220065
     3  C   -0.170862
     4  C    0.158432
     5  C   -0.171573
     6  C   -0.224966
     7  H    0.232947
     8  H    0.222973
     9  H    0.275060
    10  H    0.275254
    11  H    0.228006
    12  N    0.487983
    13  O   -0.460839
    14  O   -0.460790
    15  C   -0.306513
    16  C   -0.299684
    17  C   -0.476984
    18  H    0.144702
    19  H    0.145636
    20  H    0.155669
    21  H    0.155901
    22  H    0.154738
    23  H    0.154068
    24  H    0.165627
    25  C   -0.297701
    26  C   -0.300877
    27  C   -0.476252
    28  H    0.153298
    29  H    0.153718
    30  H    0.149052
    31  H    0.150892
    32  H    0.157518
    33  H    0.156991
    34  H    0.163278
 Sum of Mulliken charges =  -0.00000

 Dipole moment (field-independent basis, Debye):
    X=             -5.1833    Y=              0.2329    Z=              1.8508  Tot=              5.5088
 Quadrupole moment (field-independent basis, Debye-Ang):
   XX=           -124.7444   YY=            -95.8301   ZZ=            -89.4868
   XY=              0.5183   XZ=              7.7043   YZ=             -0.8067

 Normal termination of Gaussian 16 at Thu May  6 22:19:33 2021.
