 Gaussian 16, Revision A.03,
 Gaussian 16:  EM64L-G16RevA.03 25-Dec-2016

 -------------
 #p 6-31g* mp2
 -------------

 ------------------------------------------------------
 Input file generated by CHIRIPA (05-May-2021 14:57:25)
 ------------------------------------------------------
 Symbolic Z-matrix:
 Charge =  0 Multiplicity = 1

                         Standard orientation:
 ---------------------------------------------------------------------
 Center     Atomic      Atomic             Coordinates (Angstroms)
 Number     Number       Type             X           Y           Z
 ---------------------------------------------------------------------
      1          6           0        4.301636   -2.208582    0.218734
      2          6           0        3.163237   -1.762844    0.898357
      3          6           0        2.688711   -0.461188    0.711098
      4          6           0        3.380184    0.371789   -0.167142
      5          6           0        4.517230   -0.042989   -0.858789
      6          6           0        4.973814   -1.348748   -0.656127
      7          1           0        4.663290   -3.221334    0.370184
      8          1           0        2.639202   -2.428411    1.578395
      9          1           0        1.809899   -0.090240    1.224425
     10          1           0        5.018403    0.643576   -1.530259
     11          1           0        5.858171   -1.692202   -1.185274
     12          7           0        2.887321    1.751965   -0.373537
     13          8           0        3.514417    2.466321   -1.152693
     14          8           0        1.883253    2.093258    0.247754
     15          6           0       -1.423919    0.092930    1.602225
     16          6           0       -1.477200   -0.918225    0.637212
     17          6           0       -2.601072   -1.059048   -0.182318
     18          6           0       -3.658391   -0.167255   -0.008902
     19          6           0       -3.635217    0.850352    0.943585
     20          6           0       -2.501198    0.972439    1.752067
     21          1           0       -0.546927    0.195048    2.234564
     22          1           0       -0.642051   -1.602698    0.518611
     23          1           0       -2.668713   -1.832876   -0.937322
     24          1           0       -4.483329    1.517548    1.038301
     25          1           0       -2.462586    1.758656    2.500677
     26          7           0       -4.853554   -0.306421   -0.870654
     27          8           0       -5.771888    0.492014   -0.698025
     28          8           0       -4.849360   -1.211301   -1.702407
 ---------------------------------------------------------------------

 SCF Done:  E(RHF) =  -868.336962498     A.U. after   16 cycles
 E2 =    -0.2600468958D+01 EUMP2 =    -0.87093743145609D+03

 The electronic state is 1-A.
 Alpha  occ. eigenvalues --  -20.61483 -20.61463 -20.60618 -20.60608 -15.86532
 Alpha  occ. eigenvalues --  -15.85670 -11.32001 -11.31036 -11.28692 -11.28508
 Alpha  occ. eigenvalues --  -11.28279 -11.27665 -11.27654 -11.27577 -11.27525
 Alpha  occ. eigenvalues --  -11.27440 -11.26735 -11.26582  -1.60544  -1.59690
 Alpha  occ. eigenvalues --   -1.40098  -1.39244  -1.20171  -1.19218  -1.09529
 Alpha  occ. eigenvalues --   -1.08629  -1.05606  -1.04629  -0.96361  -0.95463
 Alpha  occ. eigenvalues --   -0.86987  -0.86045  -0.83201  -0.82297  -0.78253
 Alpha  occ. eigenvalues --   -0.77328  -0.72753  -0.71895  -0.71864  -0.71298
 Alpha  occ. eigenvalues --   -0.71010  -0.70370  -0.65825  -0.65609  -0.64892
 Alpha  occ. eigenvalues --   -0.64673  -0.62957  -0.61979  -0.56064  -0.55200
 Alpha  occ. eigenvalues --   -0.53902  -0.53685  -0.52923  -0.52742  -0.49518
 Alpha  occ. eigenvalues --   -0.49496  -0.48651  -0.48644  -0.45480  -0.44649
 Alpha  occ. eigenvalues --   -0.38117  -0.37259  -0.37134  -0.36207
 Alpha virt. eigenvalues --    0.04285   0.05207   0.10415   0.11445   0.15722
 Alpha virt. eigenvalues --    0.16621   0.18709   0.22098   0.25277   0.26421
 Alpha virt. eigenvalues --    0.27553   0.29291   0.30300   0.31067   0.32498

 Mulliken charges:
               1
     1  C   -0.169887
     2  C   -0.222390
     3  C   -0.175279
     4  C    0.158970
     5  C   -0.168973
     6  C   -0.218024
     7  H    0.228473
     8  H    0.221634
     9  H    0.271878
    10  H    0.278612
    11  H    0.226911
    12  N    0.487669
    13  O   -0.456205
    14  O   -0.463156
    15  C   -0.164421
    16  C   -0.218222
    17  C   -0.170266
    18  C    0.158885
    19  C   -0.170037
    20  C   -0.215823
    21  H    0.220414
    22  H    0.214989
    23  H    0.274527
    24  H    0.276349
    25  H    0.226415
    26  N    0.488172
    27  O   -0.459776
    28  O   -0.461441
 Sum of Mulliken charges =  -0.00000

 Dipole moment (field-independent basis, Debye):
    X=              6.1153    Y=             -4.2286    Z=              3.6510  Tot=              8.2829
 Quadrupole moment (field-independent basis, Debye-Ang):
   XX=           -119.6305   YY=           -106.1785   ZZ=           -103.1040
   XY=            -20.0909   XZ=            -13.4588   YZ=              2.1683

 Normal termination of Gaussian 16 at Wed May  5 16:26:41 2021.
