 Gaussian 16, Revision A.03,
 Gaussian 16:  EM64L-G16RevA.03 25-Dec-2016

 -------------
 #p 6-31g* mp2
 -------------

 ------------------------------------------------------
 Input file generated by CHIRIPA (05-May-2021 14:57:25)
 ------------------------------------------------------
 Symbolic Z-matrix:
 Charge =  0 Multiplicity = 1

                         Standard orientation:
 ---------------------------------------------------------------------
 Center     Atomic      Atomic             Coordinates (Angstroms)
 Number     Number       Type             X           Y           Z
 ---------------------------------------------------------------------
      1          6           0       -0.576621   -0.922033   -1.148703
      2          6           0       -1.587750   -1.869954   -0.960064
      3          6           0       -2.831037   -1.489240   -0.446408
      4          6           0       -3.029744   -0.146060   -0.130695
      5          6           0       -2.042229    0.821892   -0.307246
      6          6           0       -0.806682    0.418501   -0.822267
      7          1           0        0.386188   -1.226589   -1.548254
      8          1           0       -1.411904   -2.911731   -1.212697
      9          1           0       -3.631376   -2.202339   -0.290315
     10          1           0       -2.247253    1.853008   -0.046128
     11          1           0       -0.023266    1.156844   -0.967713
     12          7           0       -4.341859    0.268988    0.413813
     13          8           0       -4.491819    1.458561    0.684121
     14          8           0       -5.195490   -0.603128    0.559979
     15          6           0        2.251415    2.621454   -0.285921
     16          6           0        2.024207    2.103787    0.993500
     17          6           0        2.331849    0.771598    1.285351
     18          6           0        2.867831   -0.018233    0.269389
     19          6           0        3.105742    0.468373   -1.015097
     20          6           0        2.790507    1.803537   -1.284375
     21          1           0        2.009483    3.657487   -0.503870
     22          1           0        1.605645    2.736673    1.770872
     23          1           0        2.166132    0.345108    2.267217
     24          1           0        3.524085   -0.186961   -1.769382
     25          1           0        2.968028    2.202868   -2.278894
     26          7           0        3.197538   -1.430138    0.566410
     27          8           0        3.668811   -2.105344   -0.346078
     28          8           0        2.978444   -1.834846    1.706079
 ---------------------------------------------------------------------

 SCF Done:  E(RHF) =  -868.337109244     A.U. after   16 cycles
 E2 =    -0.2604330393D+01 EUMP2 =    -0.87094143963708D+03

 The electronic state is 1-A.
 Alpha  occ. eigenvalues --  -20.61880 -20.61844 -20.60758 -20.60742 -15.86909
 Alpha  occ. eigenvalues --  -15.85798 -11.32433 -11.31091 -11.29031 -11.28903
 Alpha  occ. eigenvalues --  -11.28685 -11.28059 -11.27935 -11.27632 -11.27583
 Alpha  occ. eigenvalues --  -11.27259 -11.26580 -11.26473  -1.60936  -1.59828
 Alpha  occ. eigenvalues --   -1.40482  -1.39385  -1.20641  -1.19219  -1.09991
 Alpha  occ. eigenvalues --   -1.08625  -1.06008  -1.04606  -0.96780  -0.95486
 Alpha  occ. eigenvalues --   -0.87381  -0.86007  -0.83577  -0.82322  -0.78612
 Alpha  occ. eigenvalues --   -0.77398  -0.73112  -0.72298  -0.72018  -0.71656
 Alpha  occ. eigenvalues --   -0.71150  -0.70320  -0.66230  -0.65948  -0.64865
 Alpha  occ. eigenvalues --   -0.64675  -0.63304  -0.62032  -0.56459  -0.55114
 Alpha  occ. eigenvalues --   -0.54529  -0.54039  -0.52932  -0.52383  -0.49893
 Alpha  occ. eigenvalues --   -0.49866  -0.48784  -0.48759  -0.45843  -0.44808
 Alpha  occ. eigenvalues --   -0.38661  -0.37791  -0.37074  -0.36110
 Alpha virt. eigenvalues --    0.03824   0.05139   0.09914   0.11431   0.15293
 Alpha virt. eigenvalues --    0.16680   0.20328   0.21857   0.26219   0.27089
 Alpha virt. eigenvalues --    0.27895   0.28156   0.30162   0.31130   0.32001

 Mulliken charges:
               1
     1  C   -0.179309
     2  C   -0.216640
     3  C   -0.172198
     4  C    0.159429
     5  C   -0.178015
     6  C   -0.221268
     7  H    0.226588
     8  H    0.226977
     9  H    0.275583
    10  H    0.269991
    11  H    0.231203
    12  N    0.488089
    13  O   -0.463258
    14  O   -0.459644
    15  C   -0.184698
    16  C   -0.217176
    17  C   -0.165610
    18  C    0.159802
    19  C   -0.180704
    20  C   -0.221984
    21  H    0.231487
    22  H    0.230798
    23  H    0.281556
    24  H    0.277895
    25  H    0.228990
    26  N    0.487145
    27  O   -0.461479
    28  O   -0.453548
 Sum of Mulliken charges =  -0.00000

 Dipole moment (field-independent basis, Debye):
    X=              3.8098    Y=              3.4900    Z=             -2.7635  Tot=              5.8593
 Quadrupole moment (field-independent basis, Debye-Ang):
   XX=           -139.6762   YY=           -100.2255   ZZ=           -101.0436
   XY=             20.1518   XZ=              0.6370   YZ=              2.8880

 Normal termination of Gaussian 16 at Wed May  5 17:57:28 2021.
