 Gaussian 16, Revision A.03,
 Gaussian 16:  EM64L-G16RevA.03 25-Dec-2016

 -------------
 #p 6-31g* mp2
 -------------

 ------------------------------------------------------
 Input file generated by CHIRIPA (05-May-2021 14:51:09)
 ------------------------------------------------------
 Symbolic Z-matrix:
 Charge =  0 Multiplicity = 1

                         Standard orientation:
 ---------------------------------------------------------------------
 Center     Atomic      Atomic             Coordinates (Angstroms)
 Number     Number       Type             X           Y           Z
 ---------------------------------------------------------------------
      1          6           0       -3.023778    0.156904   -0.733909
      2          6           0       -3.244142   -1.307917   -0.354799
      3          6           0       -3.743333   -2.153261   -1.526975
      4          1           0       -3.964985    0.575896   -1.115382
      5          1           0       -2.300688    0.209930   -1.559574
      6          1           0       -3.965555   -1.358081    0.470829
      7          1           0       -2.302350   -1.723416    0.025995
      8          1           0       -3.022756   -2.132991   -2.350965
      9          1           0       -4.695412   -1.765580   -1.903603
     10          1           0       -3.894155   -3.196884   -1.233779
     11          6           0       -2.524731    1.014773    0.427444
     12          6           0       -2.304367    2.479594    0.048335
     13          6           0       -1.805176    3.324939    1.220510
     14          1           0       -3.247821    0.961748    1.253110
     15          1           0       -1.583524    0.595782    0.808917
     16          1           0       -3.246159    2.895093   -0.332459
     17          1           0       -1.582953    2.529758   -0.777293
     18          1           0       -0.853097    2.937257    1.597139
     19          1           0       -2.525753    3.304668    2.044500
     20          1           0       -1.654354    4.368562    0.927315
     21          6           0        2.142902   -0.732349    0.557411
     22          6           0        1.921898   -2.222754    0.817859
     23          6           0        0.654871   -2.499853    1.627583
     24          1           0        2.197054   -0.202770    1.518431
     25          1           0        1.270898   -0.326894    0.025798
     26          1           0        2.794665   -2.625580    1.347599
     27          1           0        1.868456   -2.748875   -0.143889
     28          1           0       -0.228621   -2.124824    1.100900
     29          1           0        0.702850   -2.000829    2.600863
     30          1           0        0.516336   -3.571385    1.802192
     31          6           0        3.405607   -0.439329   -0.250947
     32          6           0        3.626611    1.051077   -0.511394
     33          6           0        4.893638    1.328176   -1.321120
     34          1           0        4.277611   -0.844783    0.280665
     35          1           0        3.351454   -0.968908   -1.211966
     36          1           0        3.680052    1.577197    0.450352
     37          1           0        2.753844    1.453902   -1.041135
     38          1           0        4.845659    0.829152   -2.294399
     39          1           0        5.777129    0.953146   -0.794437
     40          1           0        5.032173    2.399708   -1.495728
 ---------------------------------------------------------------------

 SCF Done:  E(RHF) =  -470.733365487     A.U. after   11 cycles
 E2 =    -0.1583325184D+01 EUMP2 =    -0.47231669067071D+03

 The electronic state is 1-A.
 Alpha  occ. eigenvalues --  -11.21657 -11.21648 -11.21606 -11.21594 -11.21474
 Alpha  occ. eigenvalues --  -11.21411 -11.21408 -11.21344 -11.21106 -11.21105
 Alpha  occ. eigenvalues --  -11.21082 -11.21049  -1.08492  -1.08431  -1.03583
 Alpha  occ. eigenvalues --   -1.03527  -0.96031  -0.95976  -0.87053  -0.86987
 Alpha  occ. eigenvalues --   -0.79667  -0.79574  -0.78339  -0.78211  -0.65210
 Alpha  occ. eigenvalues --   -0.64990  -0.61064  -0.60855  -0.59397  -0.59346
 Alpha  occ. eigenvalues --   -0.57640  -0.57586  -0.55354  -0.55239  -0.52719
 Alpha  occ. eigenvalues --   -0.52677  -0.52471  -0.52385  -0.50071  -0.49851
 Alpha  occ. eigenvalues --   -0.48040  -0.47860  -0.46817  -0.46528  -0.46034
 Alpha  occ. eigenvalues --   -0.45800  -0.45746  -0.45386  -0.43837  -0.43783
 Alpha virt. eigenvalues --    0.19919   0.23238   0.23704   0.24426   0.25545
 Alpha virt. eigenvalues --    0.26788   0.26932   0.27831   0.28087   0.29516
 Alpha virt. eigenvalues --    0.30310   0.31656   0.31670   0.31899   0.31963

 Mulliken charges:
               1
     1  C   -0.297591
     2  C   -0.308826
     3  C   -0.475028
     4  H    0.149886
     5  H    0.148550
     6  H    0.152451
     7  H    0.159905
     8  H    0.154725
     9  H    0.155302
    10  H    0.160477
    11  C   -0.302185
    12  C   -0.299324
    13  C   -0.475883
    14  H    0.149733
    15  H    0.153091
    16  H    0.151924
    17  H    0.151446
    18  H    0.155884
    19  H    0.155086
    20  H    0.160118
    21  C   -0.300061
    22  C   -0.299265
    23  C   -0.485122
    24  H    0.149834
    25  H    0.149971
    26  H    0.152369
    27  H    0.151936
    28  H    0.163358
    29  H    0.155749
    30  H    0.160768
    31  C   -0.298331
    32  C   -0.299676
    33  C   -0.475753
    34  H    0.149941
    35  H    0.149757
    36  H    0.152106
    37  H    0.151654
    38  H    0.155229
    39  H    0.155322
    40  H    0.160472
 Sum of Mulliken charges =  -0.00000

 Dipole moment (field-independent basis, Debye):
    X=              0.0147    Y=             -0.0104    Z=              0.0166  Tot=              0.0245
 Quadrupole moment (field-independent basis, Debye-Ang):
   XX=            -84.3725   YY=            -85.4064   ZZ=            -84.8501
   XY=             -0.7406   XZ=              0.4325   YZ=             -0.2328

 Normal termination of Gaussian 16 at Thu May  6 03:43:15 2021.
