 Gaussian 16, Revision A.03,
 Gaussian 16:  EM64L-G16RevA.03 25-Dec-2016

 -------------
 #p 6-31g* mp2
 -------------

 ------------------------------------------------------
 Input file generated by CHIRIPA (05-May-2021 14:55:25)
 ------------------------------------------------------
 Symbolic Z-matrix:
 Charge =  0 Multiplicity = 1

                         Standard orientation:
 ---------------------------------------------------------------------
 Center     Atomic      Atomic             Coordinates (Angstroms)
 Number     Number       Type             X           Y           Z
 ---------------------------------------------------------------------
      1          6           0        3.513237    2.566190    0.140397
      2          6           0        2.926046    1.951840    1.251388
      3          6           0        2.509210    0.618886    1.187903
      4          6           0        2.695671   -0.073112   -0.007781
      5          6           0        3.277471    0.511140   -1.131812
      6          6           0        3.686769    1.845151   -1.045567
      7          1           0        3.834118    3.602071    0.198554
      8          1           0        2.790024    2.509368    2.173725
      9          1           0        2.051774    0.118712    2.032886
     10          1           0        3.399843   -0.070351   -2.037523
     11          1           0        4.142491    2.319689   -1.909961
     12          7           0        2.258374   -1.484810   -0.087037
     13          8           0        2.433809   -2.072747   -1.152020
     14          8           0        1.748467   -1.976630    0.917326
     15          6           0       -3.225706   -0.840251   -0.286787
     16          6           0       -2.199225   -1.471291    0.654547
     17          6           0       -1.573812   -2.742889    0.080357
     18          1           0       -4.014862   -1.573350   -0.502992
     19          1           0       -2.740983   -0.610783   -1.245840
     20          1           0       -2.685399   -1.698232    1.612017
     21          1           0       -1.412522   -0.736542    0.868689
     22          1           0       -1.063693   -2.528626   -0.864350
     23          1           0       -2.343802   -3.495781   -0.116798
     24          1           0       -0.843036   -3.177412    0.769571
     25          6           0       -3.859714    0.431796    0.273264
     26          6           0       -4.886196    1.062837   -0.668068
     27          6           0       -5.511608    2.334434   -0.093878
     28          1           0       -4.344438    0.202329    1.232318
     29          1           0       -3.070559    1.164895    0.489471
     30          1           0       -5.672899    0.328086   -0.882211
     31          1           0       -4.400022    1.289777   -1.625538
     32          1           0       -4.741618    3.087326    0.103277
     33          1           0       -6.021727    2.120171    0.850829
     34          1           0       -6.242384    2.768957   -0.783092
 ---------------------------------------------------------------------

 SCF Done:  E(RHF) =  -669.536099379     A.U. after   15 cycles
 E2 =    -0.2091707042D+01 EUMP2 =    -0.67162780642157D+03

 The electronic state is 1-A.
 Alpha  occ. eigenvalues --  -20.60955 -20.60939 -15.85968 -11.31302 -11.27862
 Alpha  occ. eigenvalues --  -11.27858 -11.27599 -11.26871 -11.26861 -11.21324
 Alpha  occ. eigenvalues --  -11.20994 -11.20905 -11.20760 -11.20682 -11.19581
 Alpha  occ. eigenvalues --   -1.59997  -1.39556  -1.19468  -1.08870  -1.07883
 Alpha  occ. eigenvalues --   -1.04864  -1.02865  -0.95717  -0.95277  -0.86302
 Alpha  occ. eigenvalues --   -0.86258  -0.82545  -0.78974  -0.77666  -0.77591
 Alpha  occ. eigenvalues --   -0.72199  -0.71315  -0.70574  -0.65124  -0.64866
 Alpha  occ. eigenvalues --   -0.64529  -0.62211  -0.60278  -0.58714  -0.56865
 Alpha  occ. eigenvalues --   -0.55368  -0.54595  -0.53196  -0.52956  -0.51925
 Alpha  occ. eigenvalues --   -0.51712  -0.49313  -0.48951  -0.48878  -0.47254
 Alpha  occ. eigenvalues --   -0.46045  -0.45196  -0.45150  -0.44898  -0.43080
 Alpha  occ. eigenvalues --   -0.37445  -0.36466
 Alpha virt. eigenvalues --    0.04910   0.11168   0.16388   0.21289   0.23310
 Alpha virt. eigenvalues --    0.24953   0.26936   0.27298   0.27843   0.28291
 Alpha virt. eigenvalues --    0.28833   0.30785   0.31792   0.32155   0.32603

 Mulliken charges:
               1
     1  C   -0.170653
     2  C   -0.218520
     3  C   -0.171367
     4  C    0.158287
     5  C   -0.170920
     6  C   -0.218542
     7  H    0.226052
     8  H    0.223991
     9  H    0.276170
    10  H    0.275848
    11  H    0.223861
    12  N    0.489051
    13  O   -0.459254
    14  O   -0.458968
    15  C   -0.297437
    16  C   -0.298876
    17  C   -0.477816
    18  H    0.149005
    19  H    0.147883
    20  H    0.148067
    21  H    0.146600
    22  H    0.156252
    23  H    0.146306
    24  H    0.181622
    25  C   -0.297000
    26  C   -0.299004
    27  C   -0.475139
    28  H    0.148545
    29  H    0.145812
    30  H    0.152251
    31  H    0.150921
    32  H    0.152937
    33  H    0.154843
    34  H    0.159192
 Sum of Mulliken charges =  -0.00000

 Dipole moment (field-independent basis, Debye):
    X=              1.8161    Y=              4.8650    Z=              0.3009  Tot=              5.2016
 Quadrupole moment (field-independent basis, Debye-Ang):
   XX=            -87.1327   YY=            -96.4455   ZZ=            -90.2419
   XY=             14.4320   XZ=             -1.2010   YZ=             -0.4122

 Normal termination of Gaussian 16 at Thu May  6 11:06:31 2021.
