 Gaussian 16, Revision A.03,
 Gaussian 16:  EM64L-G16RevA.03 25-Dec-2016

 -------------
 #p 6-31g* mp2
 -------------

 ------------------------------------------------------
 Input file generated by CHIRIPA (05-May-2021 14:55:20)
 ------------------------------------------------------
 Symbolic Z-matrix:
 Charge =  0 Multiplicity = 1

                         Standard orientation:
 ---------------------------------------------------------------------
 Center     Atomic      Atomic             Coordinates (Angstroms)
 Number     Number       Type             X           Y           Z
 ---------------------------------------------------------------------
      1          6           0        0.678084   -1.808298   -0.031170
      2          6           0        1.381605   -1.535377   -1.208919
      3          6           0        2.500756   -0.697717   -1.189534
      4          6           0        2.890349   -0.147468    0.030602
      5          6           0        2.210187   -0.400323    1.220869
      6          6           0        1.093887   -1.240901    1.177834
      7          1           0       -0.190192   -2.460146   -0.055414
      8          1           0        1.060970   -1.974632   -2.149287
      9          1           0        3.063729   -0.469610   -2.086444
     10          1           0        2.553867    0.052228    2.143094
     11          1           0        0.549444   -1.451092    2.094047
     12          7           0        4.073634    0.740869    0.063642
     13          8           0        4.396557    1.213246    1.151401
     14          8           0        4.655765    0.947950   -0.998844
     15          6           0       -3.725801    1.069621    0.130564
     16          6           0       -2.852267    2.208592   -0.396378
     17          6           0       -3.417123    3.589716   -0.062869
     18          1           0       -4.735900    1.165714   -0.290638
     19          1           0       -3.830379    1.170793    1.219702
     20          1           0       -2.748229    2.104511   -1.484017
     21          1           0       -1.844077    2.109665    0.025977
     22          1           0       -3.504893    3.718624    1.020773
     23          1           0       -4.414182    3.713440   -0.497800
     24          1           0       -2.777017    4.389166   -0.448880
     25          6           0       -3.174240   -0.317296   -0.194965
     26          6           0       -4.047775   -1.456268    0.331977
     27          6           0       -3.482919   -2.837392   -0.001532
     28          1           0       -3.069663   -0.418468   -1.284104
     29          1           0       -2.164141   -0.413390    0.226237
     30          1           0       -5.055964   -1.357341   -0.090378
     31          1           0       -4.151812   -1.352186    1.419616
     32          1           0       -2.485860   -2.961116    0.433399
     33          1           0       -3.395149   -2.966300   -1.085175
     34          1           0       -4.123025   -3.636842    0.384478
 ---------------------------------------------------------------------

 SCF Done:  E(RHF) =  -669.535386396     A.U. after   15 cycles
 E2 =    -0.2092140246D+01 EUMP2 =    -0.67162752664196D+03

 The electronic state is 1-A.
 Alpha  occ. eigenvalues --  -20.60765 -20.60759 -15.85819 -11.31187 -11.27768
 Alpha  occ. eigenvalues --  -11.27756 -11.27468 -11.26785 -11.26751 -11.22465
 Alpha  occ. eigenvalues --  -11.22257 -11.22105 -11.21976 -11.21896 -11.21341
 Alpha  occ. eigenvalues --   -1.59840  -1.39394  -1.19364  -1.09090  -1.08752
 Alpha  occ. eigenvalues --   -1.04768  -1.04194  -0.96662  -0.95590  -0.87682
 Alpha  occ. eigenvalues --   -0.86163  -0.82426  -0.80270  -0.78859  -0.77469
 Alpha  occ. eigenvalues --   -0.72037  -0.71164  -0.70485  -0.65724  -0.65013
 Alpha  occ. eigenvalues --   -0.64768  -0.62116  -0.61596  -0.60053  -0.58262
 Alpha  occ. eigenvalues --   -0.56023  -0.55238  -0.53348  -0.53149  -0.53024
 Alpha  occ. eigenvalues --   -0.52858  -0.50621  -0.48801  -0.48791  -0.48562
 Alpha  occ. eigenvalues --   -0.47293  -0.46399  -0.46300  -0.44799  -0.44421
 Alpha  occ. eigenvalues --   -0.37299  -0.36374
 Alpha virt. eigenvalues --    0.05045   0.11219   0.16479   0.19654   0.22612
 Alpha virt. eigenvalues --    0.23874   0.25527   0.26257   0.26985   0.27522
 Alpha virt. eigenvalues --    0.29145   0.30435   0.31063   0.31355   0.32319

 Mulliken charges:
               1
     1  C   -0.173285
     2  C   -0.221130
     3  C   -0.170544
     4  C    0.158266
     5  C   -0.170789
     6  C   -0.222719
     7  H    0.236283
     8  H    0.224244
     9  H    0.275613
    10  H    0.275581
    11  H    0.222963
    12  N    0.488027
    13  O   -0.460545
    14  O   -0.460373
    15  C   -0.298416
    16  C   -0.300434
    17  C   -0.476199
    18  H    0.151012
    19  H    0.149698
    20  H    0.152143
    21  H    0.154269
    22  H    0.155510
    23  H    0.155325
    24  H    0.162996
    25  C   -0.302755
    26  C   -0.299987
    27  C   -0.478633
    28  H    0.148969
    29  H    0.149201
    30  H    0.156080
    31  H    0.153094
    32  H    0.144223
    33  H    0.156232
    34  H    0.166082
 Sum of Mulliken charges =  -0.00000

 Dipole moment (field-independent basis, Debye):
    X=             -4.2894    Y=             -3.0620    Z=             -0.1519  Tot=              5.2724
 Quadrupole moment (field-independent basis, Debye-Ang):
   XX=           -118.8653   YY=            -95.5070   ZZ=            -89.1601
   XY=             -8.2627   XZ=             -0.6310   YZ=              0.4951

 Normal termination of Gaussian 16 at Wed May  5 18:55:31 2021.
