 Gaussian 16, Revision A.03,
 Gaussian 16:  EM64L-G16RevA.03 25-Dec-2016

 -------------
 #p 6-31g* mp2
 -------------

 ------------------------------------------------------
 Input file generated by CHIRIPA (05-May-2021 14:57:23)
 ------------------------------------------------------
 Symbolic Z-matrix:
 Charge =  0 Multiplicity = 1

                         Standard orientation:
 ---------------------------------------------------------------------
 Center     Atomic      Atomic             Coordinates (Angstroms)
 Number     Number       Type             X           Y           Z
 ---------------------------------------------------------------------
      1          6           0        0.431944   -1.712900    1.440520
      2          6           0        1.130083   -0.706856    2.116537
      3          6           0        2.181261   -0.029271    1.491677
      4          6           0        2.509109   -0.384928    0.184269
      5          6           0        1.832531   -1.382734   -0.515670
      6          6           0        0.784774   -2.047039    0.128886
      7          1           0       -0.383307   -2.234106    1.933577
      8          1           0        0.858261   -0.445256    3.135224
      9          1           0        2.738497    0.753581    1.991726
     10          1           0        2.126580   -1.621343   -1.530569
     11          1           0        0.244347   -2.827926   -0.398560
     12          7           0        3.620133    0.325371   -0.487668
     13          8           0        3.889479   -0.006678   -1.639984
     14          8           0        4.200571    1.200704    0.150707
     15          6           0       -1.325883    2.800146   -0.004856
     16          6           0       -2.341685    2.365403    0.852854
     17          6           0       -2.903151    1.094041    0.701379
     18          6           0       -2.422686    0.279817   -0.323064
     19          6           0       -1.411856    0.684314   -1.193635
     20          6           0       -0.865024    1.959695   -1.023567
     21          1           0       -0.895407    3.789331    0.120036
     22          1           0       -2.701564    3.015967    1.644875
     23          1           0       -3.690643    0.732198    1.351259
     24          1           0       -1.073867    0.013249   -1.973927
     25          1           0       -0.076253    2.294673   -1.691157
     26          7           0       -3.009340   -1.068245   -0.493266
     27          8           0       -2.568526   -1.766540   -1.403598
     28          8           0       -3.898863   -1.401034    0.286885
 ---------------------------------------------------------------------

 SCF Done:  E(RHF) =  -868.339663237     A.U. after   16 cycles
 E2 =    -0.2602793852D+01 EUMP2 =    -0.87094245708897D+03

 The electronic state is 1-A.
 Alpha  occ. eigenvalues --  -20.61521 -20.61507 -20.61061 -20.61055 -15.86532
 Alpha  occ. eigenvalues --  -15.86103 -11.31573 -11.31317 -11.28163 -11.28106
 Alpha  occ. eigenvalues --  -11.27857 -11.27799 -11.27779 -11.27440 -11.27093
 Alpha  occ. eigenvalues --  -11.27006 -11.26843 -11.26642  -1.60588  -1.60145
 Alpha  occ. eigenvalues --   -1.40150  -1.39700  -1.19741  -1.19432  -1.09187
 Alpha  occ. eigenvalues --   -1.08850  -1.05100  -1.04795  -0.96073  -0.95722
 Alpha  occ. eigenvalues --   -0.86509  -0.86193  -0.82920  -0.82546  -0.78013
 Alpha  occ. eigenvalues --   -0.77625  -0.72764  -0.72319  -0.71925  -0.71478
 Alpha  occ. eigenvalues --   -0.70846  -0.70501  -0.65394  -0.65102  -0.65061
 Alpha  occ. eigenvalues --   -0.64740  -0.62461  -0.62127  -0.55600  -0.55255
 Alpha  occ. eigenvalues --   -0.53902  -0.53186  -0.52851  -0.52684  -0.49538
 Alpha  occ. eigenvalues --   -0.49490  -0.49088  -0.49060  -0.45618  -0.45139
 Alpha  occ. eigenvalues --   -0.38041  -0.37157  -0.36810  -0.36117
 Alpha virt. eigenvalues --    0.04329   0.04972   0.10849   0.11323   0.16036
 Alpha virt. eigenvalues --    0.16408   0.21005   0.21658   0.26761   0.27393
 Alpha virt. eigenvalues --    0.28228   0.28419   0.30757   0.31144   0.32366

 Mulliken charges:
               1
     1  C   -0.176966
     2  C   -0.215679
     3  C   -0.172616
     4  C    0.158443
     5  C   -0.179322
     6  C   -0.220823
     7  H    0.232672
     8  H    0.222466
     9  H    0.273008
    10  H    0.275099
    11  H    0.240571
    12  N    0.486714
    13  O   -0.461283
    14  O   -0.462031
    15  C   -0.169886
    16  C   -0.219880
    17  C   -0.173788
    18  C    0.158337
    19  C   -0.164184
    20  C   -0.219963
    21  H    0.228998
    22  H    0.223393
    23  H    0.273604
    24  H    0.273036
    25  H    0.229600
    26  N    0.486528
    27  O   -0.465013
    28  O   -0.461032
 Sum of Mulliken charges =  -0.00000

 Dipole moment (field-independent basis, Debye):
    X=             -1.9031    Y=              2.2325    Z=              2.9619  Tot=              4.1688
 Quadrupole moment (field-independent basis, Debye-Ang):
   XX=           -134.6343   YY=            -99.0222   ZZ=            -98.4907
   XY=            -16.0587   XZ=              1.0326   YZ=              0.4330

 Normal termination of Gaussian 16 at Wed May  5 22:39:25 2021.
