 Gaussian 16, Revision A.03,
 Gaussian 16:  EM64L-G16RevA.03 25-Dec-2016

 -------------
 #p 6-31g* mp2
 -------------

 ------------------------------------------------------
 Input file generated by CHIRIPA (05-May-2021 14:51:11)
 ------------------------------------------------------
 Symbolic Z-matrix:
 Charge =  0 Multiplicity = 1

                         Standard orientation:
 ---------------------------------------------------------------------
 Center     Atomic      Atomic             Coordinates (Angstroms)
 Number     Number       Type             X           Y           Z
 ---------------------------------------------------------------------
      1          6           0       -3.482620   -0.590309   -0.063305
      2          6           0       -2.955713   -1.743317   -0.918248
      3          6           0       -3.418432   -3.111258   -0.415831
      4          1           0       -3.153048   -0.731826    0.975108
      5          1           0       -4.580813   -0.624873   -0.050159
      6          1           0       -1.858878   -1.705767   -0.930907
      7          1           0       -3.286416   -1.598938   -1.954783
      8          1           0       -4.511459   -3.173523   -0.419653
      9          1           0       -3.075810   -3.280960    0.610040
     10          1           0       -3.030301   -3.921062   -1.041476
     11          6           0       -3.028585    0.783661   -0.552984
     12          6           0       -3.555492    1.936668    0.301959
     13          6           0       -3.092773    3.304610   -0.200458
     14          1           0       -1.930392    0.818224   -0.566130
     15          1           0       -3.358157    0.925178   -1.591397
     16          1           0       -3.224788    1.792289    1.338494
     17          1           0       -4.652326    1.899119    0.314618
     18          1           0       -3.435395    3.474312   -1.226329
     19          1           0       -1.999745    3.366875   -0.196636
     20          1           0       -3.480904    4.114413    0.425187
     21          6           0        2.536709    0.127723    0.435698
     22          6           0        1.759883   -0.817977    1.352311
     23          6           0        0.323352   -0.355600    1.598035
     24          1           0        2.544276    1.133168    0.878380
     25          1           0        2.008648    0.212773   -0.524153
     26          1           0        2.289983   -0.902300    2.309650
     27          1           0        1.754329   -1.821331    0.907489
     28          1           0       -0.226817   -0.289207    0.653838
     29          1           0        0.311883    0.635045    2.063967
     30          1           0       -0.213695   -1.046111    2.255787
     31          6           0        3.974496   -0.321074    0.180591
     32          6           0        4.751321    0.624626   -0.736021
     33          6           0        6.187852    0.162248   -0.981747
     34          1           0        4.502555   -0.406124    1.140442
     35          1           0        3.966929   -1.326519   -0.262091
     36          1           0        4.756876    1.627980   -0.291200
     37          1           0        4.221220    0.708949   -1.693361
     38          1           0        6.199322   -0.828396   -1.447678
     39          1           0        6.738021    0.095856   -0.037550
     40          1           0        6.724899    0.852758   -1.639497
 ---------------------------------------------------------------------

 SCF Done:  E(RHF) =  -470.733013695     A.U. after   11 cycles
 E2 =    -0.1583479816D+01 EUMP2 =    -0.47231649351034D+03

 The electronic state is 1-A.
 Alpha  occ. eigenvalues --  -11.21672 -11.21630 -11.21580 -11.21543 -11.21458
 Alpha  occ. eigenvalues --  -11.21395 -11.21340 -11.21280 -11.21151 -11.21092
 Alpha  occ. eigenvalues --  -11.21054 -11.21026  -1.08487  -1.08381  -1.03586
 Alpha  occ. eigenvalues --   -1.03488  -0.96052  -0.95926  -0.87059  -0.86955
 Alpha  occ. eigenvalues --   -0.79656  -0.79552  -0.78305  -0.78192  -0.65220
 Alpha  occ. eigenvalues --   -0.64953  -0.61019  -0.60846  -0.59404  -0.59307
 Alpha  occ. eigenvalues --   -0.57670  -0.57534  -0.55446  -0.55119  -0.52728
 Alpha  occ. eigenvalues --   -0.52642  -0.52473  -0.52347  -0.49990  -0.49879
 Alpha  occ. eigenvalues --   -0.47996  -0.47868  -0.46735  -0.46588  -0.45928
 Alpha  occ. eigenvalues --   -0.45786  -0.45704  -0.45426  -0.43833  -0.43739
 Alpha virt. eigenvalues --    0.20487   0.23007   0.24066   0.24680   0.25755
 Alpha virt. eigenvalues --    0.26285   0.27069   0.27794   0.27841   0.29690
 Alpha virt. eigenvalues --    0.30832   0.31023   0.31723   0.32177   0.32265

 Mulliken charges:
               1
     1  C   -0.299851
     2  C   -0.301458
     3  C   -0.475554
     4  H    0.152435
     5  H    0.149557
     6  H    0.152608
     7  H    0.151738
     8  H    0.155191
     9  H    0.155302
    10  H    0.159907
    11  C   -0.301932
    12  C   -0.299612
    13  C   -0.475889
    14  H    0.152667
    15  H    0.149240
    16  H    0.152799
    17  H    0.151639
    18  H    0.154911
    19  H    0.155442
    20  H    0.159992
    21  C   -0.298470
    22  C   -0.299699
    23  C   -0.484109
    24  H    0.149730
    25  H    0.149173
    26  H    0.152283
    27  H    0.152175
    28  H    0.163673
    29  H    0.155232
    30  H    0.160239
    31  C   -0.298329
    32  C   -0.299740
    33  C   -0.475749
    34  H    0.149696
    35  H    0.149810
    36  H    0.152005
    37  H    0.152084
    38  H    0.155251
    39  H    0.155221
    40  H    0.160395
 Sum of Mulliken charges =  -0.00000

 Dipole moment (field-independent basis, Debye):
    X=              0.0255    Y=             -0.0007    Z=              0.0163  Tot=              0.0303
 Quadrupole moment (field-independent basis, Debye-Ang):
   XX=            -85.1986   YY=            -85.7104   ZZ=            -83.9081
   XY=              0.0792   XZ=              1.0469   YZ=              0.6095

 Normal termination of Gaussian 16 at Thu May  6 02:17:45 2021.
