 Gaussian 16, Revision A.03,
 Gaussian 16:  EM64L-G16RevA.03 25-Dec-2016

 -------------
 #p 6-31g* mp2
 -------------

 ------------------------------------------------------
 Input file generated by CHIRIPA (05-May-2021 14:57:25)
 ------------------------------------------------------
 Symbolic Z-matrix:
 Charge =  0 Multiplicity = 1

                         Standard orientation:
 ---------------------------------------------------------------------
 Center     Atomic      Atomic             Coordinates (Angstroms)
 Number     Number       Type             X           Y           Z
 ---------------------------------------------------------------------
      1          6           0       -1.502292    0.233457    1.573564
      2          6           0       -1.998436    1.397453    0.977346
      3          6           0       -3.182438    1.365544    0.234602
      4          6           0       -3.847641    0.147044    0.107903
      5          6           0       -3.378735   -1.029671    0.689934
      6          6           0       -2.192808   -0.974261    1.428211
      7          1           0       -0.581783    0.267372    2.148810
      8          1           0       -1.464279    2.336790    1.088553
      9          1           0       -3.588962    2.251673   -0.237554
     10          1           0       -3.933406   -1.951214    0.561418
     11          1           0       -1.809846   -1.879807    1.890132
     12          7           0       -5.102110    0.100824   -0.676042
     13          8           0       -5.669415   -0.985200   -0.772754
     14          8           0       -5.494304    1.151496   -1.178942
     15          6           0        5.777456    1.170345   -0.024119
     16          6           0        4.553658    1.833199   -0.163640
     17          6           0        3.363565    1.109243   -0.282450
     18          6           0        3.434333   -0.282759   -0.257698
     19          6           0        4.638134   -0.972103   -0.119998
     20          6           0        5.815720   -0.227725   -0.002782
     21          1           0        6.697090    1.740664    0.067555
     22          1           0        4.520921    2.918873   -0.180533
     23          1           0        2.402466    1.596878   -0.391614
     24          1           0        4.638951   -2.055263   -0.106561
     25          1           0        6.764704   -0.745182    0.105449
     26          7           0        2.181056   -1.059989   -0.382633
     27          8           0        2.270263   -2.285578   -0.357953
     28          8           0        1.133261   -0.428874   -0.502871
 ---------------------------------------------------------------------

 SCF Done:  E(RHF) =  -868.338039265     A.U. after   16 cycles
 E2 =    -0.2599629434D+01 EUMP2 =    -0.87093766869856D+03

 The electronic state is 1-A.
 Alpha  occ. eigenvalues --  -20.61548 -20.61540 -20.59920 -20.59909 -15.86574
 Alpha  occ. eigenvalues --  -15.84967 -11.31867 -11.30112 -11.28447 -11.28397
 Alpha  occ. eigenvalues --  -11.28119 -11.27415 -11.27383 -11.26747 -11.26664
 Alpha  occ. eigenvalues --  -11.26402 -11.25715 -11.25575  -1.60623  -1.58997
 Alpha  occ. eigenvalues --   -1.40177  -1.38558  -1.20026  -1.18275  -1.09431
 Alpha  occ. eigenvalues --   -1.07700  -1.05414  -1.03673  -0.96281  -0.94579
 Alpha  occ. eigenvalues --   -0.86813  -0.85087  -0.83112  -0.81438  -0.78180
 Alpha  occ. eigenvalues --   -0.76517  -0.72796  -0.71958  -0.71197  -0.71122
 Alpha  occ. eigenvalues --   -0.70316  -0.69405  -0.65674  -0.65407  -0.63950
 Alpha  occ. eigenvalues --   -0.63712  -0.62764  -0.61060  -0.55900  -0.54190
 Alpha  occ. eigenvalues --   -0.53749  -0.53500  -0.51964  -0.51800  -0.49566
 Alpha  occ. eigenvalues --   -0.49538  -0.47958  -0.47933  -0.45598  -0.44015
 Alpha  occ. eigenvalues --   -0.37997  -0.37017  -0.36125  -0.35255
 Alpha virt. eigenvalues --    0.04301   0.06082   0.10638   0.12407   0.15821
 Alpha virt. eigenvalues --    0.17661   0.20771   0.22322   0.26671   0.27551
 Alpha virt. eigenvalues --    0.28332   0.29139   0.30517   0.31803   0.31984

 Mulliken charges:
               1
     1  C   -0.149434
     2  C   -0.218207
     3  C   -0.171271
     4  C    0.157556
     5  C   -0.170489
     6  C   -0.212589
     7  H    0.219989
     8  H    0.214201
     9  H    0.270833
    10  H    0.273236
    11  H    0.223524
    12  N    0.488348
    13  O   -0.462448
    14  O   -0.464415
    15  C   -0.170345
    16  C   -0.218155
    17  C   -0.172519
    18  C    0.157486
    19  C   -0.170833
    20  C   -0.218266
    21  H    0.227786
    22  H    0.224532
    23  H    0.272620
    24  H    0.276737
    25  H    0.225614
    26  N    0.487587
    27  O   -0.458968
    28  O   -0.462109
 Sum of Mulliken charges =  -0.00000

 Dipole moment (field-independent basis, Debye):
    X=              9.2599    Y=              2.7502    Z=              3.2107  Tot=             10.1793
 Quadrupole moment (field-independent basis, Debye-Ang):
   XX=           -108.6092   YY=            -98.1979   ZZ=           -106.0054
   XY=              6.6165   XZ=             -9.7706   YZ=             -1.8943

 Normal termination of Gaussian 16 at Thu May  6 00:21:35 2021.
