 Gaussian 16, Revision A.03,
 Gaussian 16:  EM64L-G16RevA.03 25-Dec-2016

 -------------
 #p 6-31g* mp2
 -------------

 ------------------------------------------------------
 Input file generated by CHIRIPA (05-May-2021 14:55:19)
 ------------------------------------------------------
 Symbolic Z-matrix:
 Charge =  0 Multiplicity = 1

                         Standard orientation:
 ---------------------------------------------------------------------
 Center     Atomic      Atomic             Coordinates (Angstroms)
 Number     Number       Type             X           Y           Z
 ---------------------------------------------------------------------
      1          6           0        2.329393   -2.673858    0.587737
      2          6           0        1.167042   -1.963497    0.270171
      3          6           0        1.236060   -0.615743   -0.094991
      4          6           0        2.489589   -0.007008   -0.132358
      5          6           0        3.665654   -0.687844    0.178482
      6          6           0        3.572798   -2.034891    0.540961
      7          1           0        2.266520   -3.720551    0.870362
      8          1           0        0.200039   -2.457148    0.305644
      9          1           0        0.352077   -0.042058   -0.345745
     10          1           0        4.615290   -0.168574    0.134119
     11          1           0        4.477159   -2.584077    0.787073
     12          7           0        2.575274    1.419424   -0.517519
     13          8           0        3.691725    1.932779   -0.542839
     14          8           0        1.524359    1.997098   -0.786796
     15          6           0       -3.281124    1.053834    0.219757
     16          6           0       -1.991587    1.818103    0.521374
     17          6           0       -2.233037    3.305159    0.782454
     18          1           0       -3.772123    1.505797   -0.652937
     19          1           0       -3.974557    1.170968    1.064046
     20          1           0       -1.300257    1.698419   -0.322636
     21          1           0       -1.503503    1.364149    1.393334
     22          1           0       -2.902778    3.442383    1.637565
     23          1           0       -2.698377    3.778552   -0.088154
     24          1           0       -1.297931    3.832301    0.995899
     25          6           0       -3.056072   -0.434055   -0.043427
     26          6           0       -4.345608   -1.198325   -0.345045
     27          6           0       -4.104158   -2.685380   -0.606124
     28          1           0       -2.362639   -0.551188   -0.887717
     29          1           0       -2.565072   -0.886018    0.829267
     30          1           0       -4.833693   -0.744370   -1.217005
     31          1           0       -5.036939   -1.078641    0.498966
     32          1           0       -3.638818   -3.158772    0.264484
     33          1           0       -3.434416   -2.822603   -1.461236
     34          1           0       -5.039264   -3.212521   -0.819568
 ---------------------------------------------------------------------

 SCF Done:  E(RHF) =  -669.535793602     A.U. after   15 cycles
 E2 =    -0.2092974716D+01 EUMP2 =    -0.67162876831820D+03

 The electronic state is 1-A.
 Alpha  occ. eigenvalues --  -20.60798 -20.60790 -15.85836 -11.31122 -11.27708
 Alpha  occ. eigenvalues --  -11.27624 -11.27439 -11.26713 -11.26665 -11.22038
 Alpha  occ. eigenvalues --  -11.21918 -11.21618 -11.21460 -11.21330 -11.20598
 Alpha  occ. eigenvalues --   -1.59865  -1.39422  -1.19298  -1.08712  -1.08666
 Alpha  occ. eigenvalues --   -1.04687  -1.03620  -0.96098  -0.95557  -0.87116
 Alpha  occ. eigenvalues --   -0.86094  -0.82391  -0.79762  -0.78545  -0.77377
 Alpha  occ. eigenvalues --   -0.72064  -0.71180  -0.70413  -0.65308  -0.64951
 Alpha  occ. eigenvalues --   -0.64682  -0.62050  -0.60996  -0.59498  -0.57679
 Alpha  occ. eigenvalues --   -0.55406  -0.55209  -0.53030  -0.52860  -0.52679
 Alpha  occ. eigenvalues --   -0.52508  -0.50057  -0.48872  -0.48810  -0.48013
 Alpha  occ. eigenvalues --   -0.46800  -0.45967  -0.45817  -0.44828  -0.43901
 Alpha  occ. eigenvalues --   -0.37288  -0.36286
 Alpha virt. eigenvalues --    0.05065   0.11342   0.16555   0.20136   0.22921
 Alpha virt. eigenvalues --    0.23840   0.24952   0.25967   0.27636   0.28299
 Alpha virt. eigenvalues --    0.30216   0.30396   0.31317   0.31600   0.32506

 Mulliken charges:
               1
     1  C   -0.170272
     2  C   -0.225233
     3  C   -0.174893
     4  C    0.154964
     5  C   -0.169937
     6  C   -0.219303
     7  H    0.225425
     8  H    0.226202
     9  H    0.289563
    10  H    0.275204
    11  H    0.223101
    12  N    0.490066
    13  O   -0.460057
    14  O   -0.465469
    15  C   -0.297511
    16  C   -0.313099
    17  C   -0.474893
    18  H    0.152204
    19  H    0.149876
    20  H    0.170876
    21  H    0.146990
    22  H    0.150868
    23  H    0.155603
    24  H    0.170954
    25  C   -0.303358
    26  C   -0.298858
    27  C   -0.476844
    28  H    0.144851
    29  H    0.144669
    30  H    0.155548
    31  H    0.154503
    32  H    0.150943
    33  H    0.153922
    34  H    0.163396
 Sum of Mulliken charges =  -0.00000

 Dipole moment (field-independent basis, Debye):
    X=             -0.3521    Y=             -4.8441    Z=              1.3079  Tot=              5.0299
 Quadrupole moment (field-independent basis, Debye-Ang):
   XX=            -91.0652   YY=            -96.0758   ZZ=            -95.0573
   XY=            -12.8864   XZ=              4.2038   YZ=              0.1303

 Normal termination of Gaussian 16 at Wed May  5 15:51:28 2021.
