 Gaussian 16, Revision A.03,
 Gaussian 16:  EM64L-G16RevA.03 25-Dec-2016

 -------------
 #p 6-31g* mp2
 -------------

 ------------------------------------------------------
 Input file generated by CHIRIPA (05-May-2021 14:55:19)
 ------------------------------------------------------
 Symbolic Z-matrix:
 Charge =  0 Multiplicity = 1

                         Standard orientation:
 ---------------------------------------------------------------------
 Center     Atomic      Atomic             Coordinates (Angstroms)
 Number     Number       Type             X           Y           Z
 ---------------------------------------------------------------------
      1          6           0        2.941530   -0.145742   -2.172674
      2          6           0        2.556142    1.030074   -1.520407
      3          6           0        2.088689    0.990904   -0.203402
      4          6           0        2.019305   -0.246834    0.434157
      5          6           0        2.395869   -1.435688   -0.188833
      6          6           0        2.860307   -1.372707   -1.505981
      7          1           0        3.303488   -0.106065   -3.195811
      8          1           0        2.618153    1.984365   -2.035702
      9          1           0        1.783797    1.885864    0.325279
     10          1           0        2.322805   -2.372079    0.350844
     11          1           0        3.158920   -2.287467   -2.010054
     12          7           0        1.526030   -0.300905    1.828487
     13          8           0        1.474398   -1.403927    2.368223
     14          8           0        1.200373    0.760759    2.355226
     15          6           0       -2.577289   -0.440682   -0.386666
     16          6           0       -3.850068   -1.276243   -0.245755
     17          6           0       -3.610913   -2.765028   -0.498966
     18          1           0       -2.164014   -0.580846   -1.394883
     19          1           0       -1.820782   -0.816221    0.316231
     20          1           0       -4.604419   -0.898355   -0.947733
     21          1           0       -4.260466   -1.133923    0.762181
     22          1           0       -2.877460   -3.163348    0.209547
     23          1           0       -3.223369   -2.926442   -1.510082
     24          1           0       -4.533881   -3.343616   -0.393018
     25          6           0       -2.800255    1.049762   -0.136483
     26          6           0       -1.527475    1.885323   -0.277394
     27          6           0       -1.766631    3.374109   -0.024183
     28          1           0       -3.556761    1.425302   -0.839380
     29          1           0       -3.213529    1.189927    0.871735
     30          1           0       -1.117078    1.743004   -1.285331
     31          1           0       -0.773124    1.507436    0.424584
     32          1           0       -2.154176    3.535524    0.986933
     33          1           0       -2.500083    3.772430   -0.732696
     34          1           0       -0.843662    3.952697   -0.130131
 ---------------------------------------------------------------------

 SCF Done:  E(RHF) =  -669.535686263     A.U. after   15 cycles
 E2 =    -0.2093572142D+01 EUMP2 =    -0.67162925840522D+03

 The electronic state is 1-A.
 Alpha  occ. eigenvalues --  -20.60966 -20.60955 -15.85970 -11.31217 -11.27806
 Alpha  occ. eigenvalues --  -11.27790 -11.27538 -11.26783 -11.26773 -11.21354
 Alpha  occ. eigenvalues --  -11.21316 -11.21150 -11.21082 -11.20948 -11.20858
 Alpha  occ. eigenvalues --   -1.60015  -1.39574  -1.19402  -1.08820  -1.08182
 Alpha  occ. eigenvalues --   -1.04793  -1.03312  -0.95778  -0.95666  -0.86790
 Alpha  occ. eigenvalues --   -0.86201  -0.82506  -0.79399  -0.78043  -0.77537
 Alpha  occ. eigenvalues --   -0.72199  -0.71329  -0.70524  -0.65072  -0.64855
 Alpha  occ. eigenvalues --   -0.64728  -0.62162  -0.60681  -0.59158  -0.57401
 Alpha  occ. eigenvalues --   -0.55308  -0.55040  -0.53142  -0.52885  -0.52476
 Alpha  occ. eigenvalues --   -0.52206  -0.49706  -0.48982  -0.48950  -0.47716
 Alpha  occ. eigenvalues --   -0.46436  -0.45606  -0.45497  -0.44768  -0.43567
 Alpha  occ. eigenvalues --   -0.37365  -0.36341
 Alpha virt. eigenvalues --    0.04941   0.11218   0.16396   0.21018   0.23105
 Alpha virt. eigenvalues --    0.24211   0.26591   0.26788   0.27567   0.27818
 Alpha virt. eigenvalues --    0.29118   0.30666   0.31532   0.31738   0.32165

 Mulliken charges:
               1
     1  C   -0.170301
     2  C   -0.220052
     3  C   -0.167788
     4  C    0.159027
     5  C   -0.170224
     6  C   -0.218874
     7  H    0.225751
     8  H    0.223656
     9  H    0.276722
    10  H    0.275523
    11  H    0.223510
    12  N    0.488203
    13  O   -0.458831
    14  O   -0.459599
    15  C   -0.298971
    16  C   -0.299410
    17  C   -0.476315
    18  H    0.146004
    19  H    0.152057
    20  H    0.150221
    21  H    0.154844
    22  H    0.158288
    23  H    0.151884
    24  H    0.159831
    25  C   -0.297395
    26  C   -0.311108
    27  C   -0.473981
    28  H    0.146885
    29  H    0.154325
    30  H    0.145175
    31  H    0.164176
    32  H    0.161322
    33  H    0.153391
    34  H    0.152053
 Sum of Mulliken charges =  -0.00000

 Dipole moment (field-independent basis, Debye):
    X=              1.8002    Y=              0.1265    Z=             -4.7745  Tot=              5.1042
 Quadrupole moment (field-independent basis, Debye-Ang):
   XX=            -88.3656   YY=            -91.4141   ZZ=            -98.7346
   XY=             -0.8007   XZ=             -9.5100   YZ=              1.0753

 Normal termination of Gaussian 16 at Wed May  5 22:07:40 2021.
