 Gaussian 16, Revision A.03,
 Gaussian 16:  EM64L-G16RevA.03 25-Dec-2016

 -------------
 #p 6-31g* mp2
 -------------

 ------------------------------------------------------
 Input file generated by CHIRIPA (05-May-2021 14:53:18)
 ------------------------------------------------------
 Symbolic Z-matrix:
 Charge =  0 Multiplicity = 1

                         Standard orientation:
 ---------------------------------------------------------------------
 Center     Atomic      Atomic             Coordinates (Angstroms)
 Number     Number       Type             X           Y           Z
 ---------------------------------------------------------------------
      1          6           0        3.214819   -0.617630   -0.257257
      2          6           0        3.978519    0.702930   -0.153006
      3          6           0        5.016193    0.874914   -1.262712
      4          1           0        3.929957   -1.450980   -0.224857
      5          1           0        2.718291   -0.669720   -1.236105
      6          1           0        4.472326    0.753126    0.825897
      7          1           0        3.261464    1.533228   -0.185465
      8          1           0        4.535951    0.851011   -2.246276
      9          1           0        5.753692    0.066477   -1.229167
     10          1           0        5.550386    1.825555   -1.169013
     11          6           0        2.173868   -0.804120    0.845182
     12          6           0        1.410168   -2.124680    0.740930
     13          6           0        0.372493   -2.296664    1.850637
     14          1           0        2.670396   -0.752030    1.824029
     15          1           0        1.458730    0.029230    0.812781
     16          1           0        2.127223   -2.954978    0.773390
     17          1           0        0.916361   -2.174875   -0.237973
     18          1           0       -0.365006   -1.488227    1.817091
     19          1           0        0.852736   -2.272761    2.834200
     20          1           0       -0.161699   -3.247305    1.756937
     21          6           0       -0.896671    2.433855    0.943913
     22          6           0       -0.359519    1.875790   -0.220797
     23          6           0       -1.020367    0.834584   -0.879371
     24          6           0       -2.221768    0.373767   -0.343115
     25          6           0       -2.782411    0.909116    0.815493
     26          6           0       -2.104274    1.949590    1.457436
     27          1           0       -0.376594    3.242405    1.449050
     28          1           0        0.578158    2.249872   -0.621883
     29          1           0       -0.626991    0.384317   -1.782660
     30          1           0       -3.718852    0.515098    1.191319
     31          1           0       -2.523788    2.381080    2.361798
     32          7           0       -2.930530   -0.728124   -1.031514
     33          8           0       -3.987516   -1.116279   -0.538814
     34          8           0       -2.415651   -1.182767   -2.050748
 ---------------------------------------------------------------------

 SCF Done:  E(RHF) =  -669.534919497     A.U. after   15 cycles
 E2 =    -0.2094821518D+01 EUMP2 =    -0.67162974101440D+03

 The electronic state is 1-A.
 Alpha  occ. eigenvalues --  -20.60872 -20.60865 -15.85925 -11.31343 -11.27899
 Alpha  occ. eigenvalues --  -11.27896 -11.27631 -11.26919 -11.26904 -11.22208
 Alpha  occ. eigenvalues --  -11.21749 -11.21582 -11.21561 -11.21438 -11.20985
 Alpha  occ. eigenvalues --   -1.59943  -1.39495  -1.19520  -1.08901  -1.08709
 Alpha  occ. eigenvalues --   -1.04927  -1.03777  -0.96213  -0.95720  -0.87232
 Alpha  occ. eigenvalues --   -0.86314  -0.82554  -0.79876  -0.78497  -0.77594
 Alpha  occ. eigenvalues --   -0.72140  -0.71267  -0.70597  -0.65448  -0.65153
 Alpha  occ. eigenvalues --   -0.64879  -0.62249  -0.61208  -0.59597  -0.57814
 Alpha  occ. eigenvalues --   -0.55520  -0.55398  -0.53287  -0.53022  -0.52890
 Alpha  occ. eigenvalues --   -0.52632  -0.50191  -0.48905  -0.48893  -0.48167
 Alpha  occ. eigenvalues --   -0.46937  -0.46014  -0.45922  -0.44885  -0.44017
 Alpha  occ. eigenvalues --   -0.37460  -0.36428
 Alpha virt. eigenvalues --    0.04928   0.11007   0.16350   0.19541   0.23031
 Alpha virt. eigenvalues --    0.23605   0.25497   0.26013   0.27324   0.28553
 Alpha virt. eigenvalues --    0.29533   0.29879   0.31474   0.31545   0.32038

 Mulliken charges:
               1
     1  C   -0.298554
     2  C   -0.299391
     3  C   -0.475620
     4  H    0.153051
     5  H    0.146488
     6  H    0.154207
     7  H    0.140488
     8  H    0.154824
     9  H    0.158599
    10  H    0.160031
    11  C   -0.307454
    12  C   -0.300696
    13  C   -0.478772
    14  H    0.147660
    15  H    0.155745
    16  H    0.152540
    17  H    0.155598
    18  H    0.155288
    19  H    0.152829
    20  H    0.164791
    21  C   -0.170816
    22  C   -0.222916
    23  C   -0.170327
    24  C    0.160683
    25  C   -0.172081
    26  C   -0.217682
    27  H    0.226950
    28  H    0.228867
    29  H    0.276302
    30  H    0.276591
    31  H    0.224527
    32  N    0.488207
    33  O   -0.459532
    34  O   -0.460424
 Sum of Mulliken charges =  -0.00000

 Dipole moment (field-independent basis, Debye):
    X=              2.3968    Y=              3.8633    Z=              2.4229  Tot=              5.1517
 Quadrupole moment (field-independent basis, Debye-Ang):
   XX=           -103.5296   YY=            -92.2287   ZZ=            -94.6963
   XY=             -8.6048   XZ=             -8.2793   YZ=             -0.1998

 Normal termination of Gaussian 16 at Wed May  5 15:47:19 2021.
