 Gaussian 16, Revision A.03,
 Gaussian 16:  EM64L-G16RevA.03 25-Dec-2016

 -------------
 #p 6-31g* mp2
 -------------

 ------------------------------------------------------
 Input file generated by CHIRIPA (05-May-2021 14:53:14)
 ------------------------------------------------------
 Symbolic Z-matrix:
 Charge =  0 Multiplicity = 1

                         Standard orientation:
 ---------------------------------------------------------------------
 Center     Atomic      Atomic             Coordinates (Angstroms)
 Number     Number       Type             X           Y           Z
 ---------------------------------------------------------------------
      1          6           0        2.820861    0.266788    0.426690
      2          6           0        4.071362   -0.399960   -0.147487
      3          6           0        4.423760   -1.706937    0.563441
      4          1           0        2.974790    0.459965    1.497173
      5          1           0        1.975281   -0.431082    0.353434
      6          1           0        4.914023    0.299470   -0.074434
      7          1           0        3.914512   -0.591398   -1.216770
      8          1           0        3.601681   -2.425060    0.479253
      9          1           0        4.606871   -1.529130    1.628080
     10          1           0        5.320820   -2.166655    0.137058
     11          6           0        2.455760    1.574440   -0.273649
     12          6           0        1.205259    2.241189    0.300529
     13          6           0        0.852861    3.548166   -0.410400
     14          1           0        3.301340    2.272310   -0.200393
     15          1           0        2.301831    1.381263   -1.344132
     16          1           0        1.362109    2.432627    1.369811
     17          1           0        0.362598    1.541759    0.227475
     18          1           0        0.669750    3.370359   -1.475039
     19          1           0        1.674940    4.266289   -0.326212
     20          1           0       -0.044199    4.007884    0.015983
     21          6           0       -3.970767    0.802729    0.575076
     22          6           0       -3.625821    0.636246   -0.770219
     23          6           0       -2.569579   -0.204515   -1.133569
     24          6           0       -1.876568   -0.866368   -0.121157
     25          6           0       -2.196220   -0.721118    1.227922
     26          6           0       -3.256125    0.124711    1.568101
     27          1           0       -4.792703    1.457821    0.848336
     28          1           0       -4.179063    1.161539   -1.543546
     29          1           0       -2.281334   -0.351598   -2.167348
     30          1           0       -1.626200   -1.258082    1.976364
     31          1           0       -3.521793    0.252097    2.613682
     32          7           0       -0.756434   -1.759126   -0.493555
     33          8           0       -0.161526   -2.330968    0.417334
     34          8           0       -0.494588   -1.870123   -1.689278
 ---------------------------------------------------------------------

 SCF Done:  E(RHF) =  -669.536371469     A.U. after   15 cycles
 E2 =    -0.2092990018D+01 EUMP2 =    -0.67162936148739D+03

 The electronic state is 1-A.
 Alpha  occ. eigenvalues --  -20.61041 -20.61027 -15.86050 -11.31346 -11.27901
 Alpha  occ. eigenvalues --  -11.27894 -11.27620 -11.26887 -11.26877 -11.21305
 Alpha  occ. eigenvalues --  -11.20934 -11.20792 -11.20654 -11.20432 -11.19982
 Alpha  occ. eigenvalues --   -1.60096  -1.39649  -1.19507  -1.08916  -1.07755
 Alpha  occ. eigenvalues --   -1.04889  -1.02879  -0.95763  -0.95326  -0.86348
 Alpha  occ. eigenvalues --   -0.86293  -0.82594  -0.78996  -0.77658  -0.77511
 Alpha  occ. eigenvalues --   -0.72271  -0.71422  -0.70606  -0.65157  -0.64889
 Alpha  occ. eigenvalues --   -0.64371  -0.62235  -0.60278  -0.58752  -0.56928
 Alpha  occ. eigenvalues --   -0.55394  -0.54604  -0.53232  -0.52979  -0.52069
 Alpha  occ. eigenvalues --   -0.51742  -0.49268  -0.49046  -0.49031  -0.47296
 Alpha  occ. eigenvalues --   -0.46032  -0.45416  -0.45043  -0.44539  -0.43118
 Alpha  occ. eigenvalues --   -0.37461  -0.36481
 Alpha virt. eigenvalues --    0.04839   0.11166   0.16316   0.21304   0.23255
 Alpha virt. eigenvalues --    0.25005   0.26906   0.27230   0.27829   0.28267
 Alpha virt. eigenvalues --    0.28625   0.30995   0.31930   0.32199   0.32447

 Mulliken charges:
               1
     1  C   -0.306248
     2  C   -0.298084
     3  C   -0.478959
     4  H    0.144457
     5  H    0.165276
     6  H    0.146258
     7  H    0.154935
     8  H    0.170111
     9  H    0.150143
    10  H    0.156138
    11  C   -0.298830
    12  C   -0.300068
    13  C   -0.474498
    14  H    0.146892
    15  H    0.151770
    16  H    0.149760
    17  H    0.148277
    18  H    0.154229
    19  H    0.155341
    20  H    0.155584
    21  C   -0.170328
    22  C   -0.217943
    23  C   -0.171754
    24  C    0.159565
    25  C   -0.170915
    26  C   -0.217960
    27  H    0.226312
    28  H    0.224164
    29  H    0.275938
    30  H    0.276555
    31  H    0.224211
    32  N    0.486967
    33  O   -0.458516
    34  O   -0.458778
 Sum of Mulliken charges =  -0.00000

 Dipole moment (field-independent basis, Debye):
    X=             -4.1445    Y=              2.9358    Z=              1.2701  Tot=              5.2354
 Quadrupole moment (field-independent basis, Debye-Ang):
   XX=            -80.7191   YY=           -101.6439   ZZ=            -90.1605
   XY=             -2.4786   XZ=             -1.1979   YZ=             -1.9637

 Normal termination of Gaussian 16 at Thu May  6 17:07:12 2021.
