 Gaussian 16, Revision A.03,
 Gaussian 16:  EM64L-G16RevA.03 25-Dec-2016

 -------------
 #p 6-31g* mp2
 -------------

 ------------------------------------------------------
 Input file generated by CHIRIPA (05-May-2021 14:53:17)
 ------------------------------------------------------
 Symbolic Z-matrix:
 Charge =  0 Multiplicity = 1

                         Standard orientation:
 ---------------------------------------------------------------------
 Center     Atomic      Atomic             Coordinates (Angstroms)
 Number     Number       Type             X           Y           Z
 ---------------------------------------------------------------------
      1          6           0       -2.177813    0.521879   -0.168765
      2          6           0       -3.686165    0.274381   -0.128723
      3          6           0       -4.053646   -1.183328   -0.407714
      4          1           0       -1.790216    0.226528   -1.153387
      5          1           0       -1.686865   -0.128526    0.568350
      6          1           0       -4.174259    0.926058   -0.864724
      7          1           0       -4.070248    0.570535    0.855853
      8          1           0       -3.593318   -1.845207    0.332973
      9          1           0       -3.697921   -1.487664   -1.397381
     10          1           0       -5.136635   -1.337828   -0.374170
     11          6           0       -1.794695    1.974538    0.108238
     12          6           0       -0.286343    2.222036    0.068196
     13          6           0        0.081138    3.679746    0.347187
     14          1           0       -2.285643    2.624944   -0.628877
     15          1           0       -2.182292    2.269890    1.092860
     16          1           0        0.097740    1.925882   -0.916380
     17          1           0        0.201751    1.570360    0.804197
     18          1           0       -0.274587    3.984082    1.336854
     19          1           0       -0.379190    4.341624   -0.393500
     20          1           0        1.164127    3.834245    0.313643
     21          6           0       -0.331440   -2.567134    0.557596
     22          6           0        0.369115   -1.939245    1.592729
     23          6           0        1.414333   -1.055312    1.308599
     24          6           0        1.733822   -0.821257   -0.027977
     25          6           0        1.054641   -1.431431   -1.081396
     26          6           0        0.012951   -2.311674   -0.773815
     27          1           0       -1.142020   -3.252361    0.787424
     28          1           0        0.103842   -2.135746    2.627651
     29          1           0        1.973267   -0.555627    2.090472
     30          1           0        1.342113   -1.215604   -2.103254
     31          1           0       -0.529370   -2.797876   -1.579755
     32          7           0        2.838479    0.112569   -0.341186
     33          8           0        3.100501    0.301933   -1.526986
     34          8           0        3.421372    0.637457    0.605052
 ---------------------------------------------------------------------

 SCF Done:  E(RHF) =  -669.532227110     A.U. after   15 cycles
 E2 =    -0.2098810335D+01 EUMP2 =    -0.67163103744543D+03

 The electronic state is 1-A.
 Alpha  occ. eigenvalues --  -20.60869 -20.60860 -15.85892 -11.31243 -11.27815
 Alpha  occ. eigenvalues --  -11.27795 -11.27510 -11.26841 -11.26791 -11.21901
 Alpha  occ. eigenvalues --  -11.21732 -11.21363 -11.21311 -11.21257 -11.20644
 Alpha  occ. eigenvalues --   -1.59923  -1.39480  -1.19446  -1.08843  -1.08456
 Alpha  occ. eigenvalues --   -1.04845  -1.03597  -0.96039  -0.95666  -0.87071
 Alpha  occ. eigenvalues --   -0.86237  -0.82501  -0.79705  -0.78311  -0.77547
 Alpha  occ. eigenvalues --   -0.72123  -0.71220  -0.70546  -0.65148  -0.65076
 Alpha  occ. eigenvalues --   -0.64838  -0.62186  -0.61023  -0.59449  -0.57656
 Alpha  occ. eigenvalues --   -0.55467  -0.55239  -0.53498  -0.52927  -0.52622
 Alpha  occ. eigenvalues --   -0.52450  -0.50032  -0.48885  -0.48880  -0.48072
 Alpha  occ. eigenvalues --   -0.46770  -0.45840  -0.45463  -0.44812  -0.43782
 Alpha  occ. eigenvalues --   -0.37223  -0.36358
 Alpha virt. eigenvalues --    0.04918   0.11004   0.16333   0.20476   0.23163
 Alpha virt. eigenvalues --    0.24068   0.25824   0.26599   0.27692   0.27821
 Alpha virt. eigenvalues --    0.28872   0.29731   0.31596   0.31960   0.32418

 Mulliken charges:
               1
     1  C   -0.303373
     2  C   -0.298713
     3  C   -0.474552
     4  H    0.145909
     5  H    0.157087
     6  H    0.153205
     7  H    0.151357
     8  H    0.145568
     9  H    0.151277
    10  H    0.162276
    11  C   -0.296867
    12  C   -0.306953
    13  C   -0.476212
    14  H    0.149003
    15  H    0.147191
    16  H    0.153155
    17  H    0.152233
    18  H    0.152112
    19  H    0.153825
    20  H    0.170557
    21  C   -0.172412
    22  C   -0.219440
    23  C   -0.174575
    24  C    0.166203
    25  C   -0.171866
    26  C   -0.211321
    27  H    0.226763
    28  H    0.223772
    29  H    0.275690
    30  H    0.275346
    31  H    0.224127
    32  N    0.490560
    33  O   -0.460442
    34  O   -0.460492
 Sum of Mulliken charges =  -0.00000

 Dipole moment (field-independent basis, Debye):
    X=             -3.7093    Y=             -3.3025    Z=              1.0850  Tot=              5.0836
 Quadrupole moment (field-independent basis, Debye-Ang):
   XX=           -109.4837   YY=            -90.8998   ZZ=            -89.1474
   XY=             -2.6921   XZ=              2.8407   YZ=             -0.3986

 Normal termination of Gaussian 16 at Thu May  6 04:22:12 2021.
