 Gaussian 16, Revision A.03,
 Gaussian 16:  EM64L-G16RevA.03 25-Dec-2016

 -------------
 #p 6-31g* mp2
 -------------

 ------------------------------------------------------
 Input file generated by CHIRIPA (05-May-2021 14:51:11)
 ------------------------------------------------------
 Symbolic Z-matrix:
 Charge =  0 Multiplicity = 1

                         Standard orientation:
 ---------------------------------------------------------------------
 Center     Atomic      Atomic             Coordinates (Angstroms)
 Number     Number       Type             X           Y           Z
 ---------------------------------------------------------------------
      1          6           0       -3.233149    0.310333   -0.344208
      2          6           0       -3.093307    1.718132   -0.924320
      3          6           0       -1.638220    2.179410   -1.012286
      4          1           0       -2.778123    0.285695    0.655437
      5          1           0       -2.661445   -0.393090   -0.965291
      6          1           0       -3.666236    2.418476   -0.303121
      7          1           0       -3.548890    1.739471   -1.922622
      8          1           0       -1.057692    1.503718   -1.648704
      9          1           0       -1.175705    2.186580   -0.020002
     10          1           0       -1.561410    3.188239   -1.429690
     11          6           0       -4.681941   -0.164895   -0.249936
     12          6           0       -4.821783   -1.572695    0.330176
     13          6           0       -6.276870   -2.033973    0.418142
     14          1           0       -5.253646    0.538528    0.371147
     15          1           0       -5.136968   -0.140257   -1.249581
     16          1           0       -4.366201   -1.594033    1.328477
     17          1           0       -4.248855   -2.273038   -0.291023
     18          1           0       -6.739385   -2.041143   -0.574143
     19          1           0       -6.857398   -1.358280    1.054560
     20          1           0       -6.353681   -3.042801    0.835546
     21          6           0        4.280255   -0.519858   -0.231470
     22          6           0        5.795434   -0.650045   -0.072511
     23          6           0        6.426573   -1.547694   -1.137257
     24          1           0        3.826074   -1.519192   -0.186769
     25          1           0        4.056408   -0.119162   -1.229833
     26          1           0        6.016414   -1.049078    0.925766
     27          1           0        6.246042    0.349732   -0.117405
     28          1           0        6.235295   -1.149952   -2.139164
     29          1           0        6.004361   -2.556709   -1.090066
     30          1           0        7.510113   -1.626789   -1.004804
     31          6           0        3.634835    0.374420    0.825614
     32          6           0        2.119656    0.504607    0.666655
     33          6           0        1.488518    1.402256    1.731401
     34          1           0        3.858683   -0.026276    1.823978
     35          1           0        4.089017    1.373754    0.780913
     36          1           0        1.669048   -0.495169    0.711548
     37          1           0        1.898676    0.903640   -0.331622
     38          1           0        1.910729    2.411270    1.684210
     39          1           0        1.679796    1.004514    2.733307
     40          1           0        0.404977    1.481351    1.598947
 ---------------------------------------------------------------------

 SCF Done:  E(RHF) =  -470.733242377     A.U. after   11 cycles
 E2 =    -0.1582520348D+01 EUMP2 =    -0.47231576272455D+03

 The electronic state is 1-A.
 Alpha  occ. eigenvalues --  -11.21603 -11.21602 -11.21585 -11.21551 -11.21410
 Alpha  occ. eigenvalues --  -11.21379 -11.21350 -11.21319 -11.21072 -11.21059
 Alpha  occ. eigenvalues --  -11.21049 -11.21036  -1.08434  -1.08400  -1.03544
 Alpha  occ. eigenvalues --   -1.03488  -0.96011  -0.95926  -0.87032  -0.86941
 Alpha  occ. eigenvalues --   -0.79596  -0.79560  -0.78250  -0.78208  -0.65066
 Alpha  occ. eigenvalues --   -0.65030  -0.60957  -0.60891  -0.59433  -0.59274
 Alpha  occ. eigenvalues --   -0.57736  -0.57428  -0.55300  -0.55215  -0.52757
 Alpha  occ. eigenvalues --   -0.52670  -0.52456  -0.52232  -0.49949  -0.49855
 Alpha  occ. eigenvalues --   -0.47947  -0.47834  -0.46633  -0.46572  -0.45793
 Alpha  occ. eigenvalues --   -0.45756  -0.45705  -0.45668  -0.43788  -0.43738
 Alpha virt. eigenvalues --    0.21471   0.23030   0.23434   0.24988   0.26037
 Alpha virt. eigenvalues --    0.26469   0.26969   0.27582   0.27771   0.29080
 Alpha virt. eigenvalues --    0.30073   0.31221   0.31610   0.31951   0.32241

 Mulliken charges:
               1
     1  C   -0.298444
     2  C   -0.299587
     3  C   -0.482029
     4  H    0.149194
     5  H    0.149792
     6  H    0.151874
     7  H    0.151935
     8  H    0.155706
     9  H    0.161531
    10  H    0.160198
    11  C   -0.298293
    12  C   -0.299675
    13  C   -0.475712
    14  H    0.149559
    15  H    0.149741
    16  H    0.151970
    17  H    0.151930
    18  H    0.155184
    19  H    0.155206
    20  H    0.160246
    21  C   -0.298243
    22  C   -0.299625
    23  C   -0.475693
    24  H    0.149558
    25  H    0.149497
    26  H    0.151886
    27  H    0.151942
    28  H    0.155149
    29  H    0.155122
    30  H    0.160199
    31  C   -0.298398
    32  C   -0.300120
    33  C   -0.479650
    34  H    0.149364
    35  H    0.149620
    36  H    0.151818
    37  H    0.153765
    38  H    0.155194
    39  H    0.154795
    40  H    0.163491
 Sum of Mulliken charges =  -0.00000

 Dipole moment (field-independent basis, Debye):
    X=             -0.0063    Y=              0.0049    Z=             -0.0082  Tot=              0.0115
 Quadrupole moment (field-independent basis, Debye-Ang):
   XX=            -86.2006   YY=            -84.5754   ZZ=            -84.0563
   XY=              0.0024   XZ=              0.3784   YZ=             -0.5011

 Normal termination of Gaussian 16 at Wed May  5 23:05:37 2021.
