 Gaussian 16, Revision A.03,
 Gaussian 16:  EM64L-G16RevA.03 25-Dec-2016

 -------------
 #p 6-31g* mp2
 -------------

 ------------------------------------------------------
 Input file generated by CHIRIPA (05-May-2021 14:51:10)
 ------------------------------------------------------
 Symbolic Z-matrix:
 Charge =  0 Multiplicity = 1

                         Standard orientation:
 ---------------------------------------------------------------------
 Center     Atomic      Atomic             Coordinates (Angstroms)
 Number     Number       Type             X           Y           Z
 ---------------------------------------------------------------------
      1          6           0        4.106136    0.880008    0.071976
      2          6           0        2.594328    0.994594   -0.126245
      3          6           0        2.087231    2.430466    0.011300
      4          1           0        4.369999    1.270075    1.064533
      5          1           0        4.614695    1.521272   -0.661198
      6          1           0        2.088811    0.352239    0.606181
      7          1           0        2.334010    0.604032   -1.118370
      8          1           0        2.564863    3.080290   -0.729104
      9          1           0        2.318270    2.827066    1.005246
     10          1           0        1.004065    2.489360   -0.134108
     11          6           0        4.628150   -0.549378   -0.062501
     12          6           0        6.139958   -0.663963    0.135720
     13          6           0        6.647055   -2.099835   -0.001824
     14          1           0        4.119591   -1.190642    0.670673
     15          1           0        4.364287   -0.939445   -1.055058
     16          1           0        6.400276   -0.273401    1.127845
     17          1           0        6.645475   -0.021608   -0.596706
     18          1           0        6.416016   -2.496435   -0.995771
     19          1           0        6.169423   -2.749659    0.738579
     20          1           0        7.730221   -2.158729    0.143583
     21          6           0       -4.944606   -0.663745   -0.043940
     22          6           0       -6.319222   -0.012735    0.112904
     23          6           0       -7.464311   -1.022714    0.032224
     24          1           0       -4.903319   -1.190871   -1.006946
     25          1           0       -4.817034   -1.427174    0.735993
     26          1           0       -6.443609    0.750200   -0.666244
     27          1           0       -6.357175    0.513062    1.075564
     28          1           0       -7.367911   -1.778047    0.818850
     29          1           0       -7.454837   -1.539562   -0.932856
     30          1           0       -8.437826   -0.535888    0.146812
     31          6           0       -3.789681    0.333115    0.034466
     32          6           0       -2.415064   -0.317895   -0.122380
     33          6           0       -1.269975    0.692082   -0.041700
     34          1           0       -3.917252    1.096544   -0.745469
     35          1           0       -3.830968    0.860240    0.997471
     36          1           0       -2.377111   -0.843693   -1.085038
     37          1           0       -2.290676   -1.080831    0.656769
     38          1           0       -1.279448    1.208931    0.923380
     39          1           0       -1.366374    1.447417   -0.828325
     40          1           0       -0.296460    0.205257   -0.156288
 ---------------------------------------------------------------------

 SCF Done:  E(RHF) =  -470.732513878     A.U. after   11 cycles
 E2 =    -0.1583185768D+01 EUMP2 =    -0.47231569964592D+03

 The electronic state is 1-A.
 Alpha  occ. eigenvalues --  -11.21596 -11.21584 -11.21581 -11.21546 -11.21396
 Alpha  occ. eigenvalues --  -11.21374 -11.21336 -11.21311 -11.21068 -11.21059
 Alpha  occ. eigenvalues --  -11.21022 -11.20901  -1.08430  -1.08388  -1.03568
 Alpha  occ. eigenvalues --   -1.03443  -0.96059  -0.95847  -0.87061  -0.86884
 Alpha  occ. eigenvalues --   -0.79613  -0.79549  -0.78247  -0.78207  -0.65059
 Alpha  occ. eigenvalues --   -0.65021  -0.60950  -0.60858  -0.59665  -0.59061
 Alpha  occ. eigenvalues --   -0.57662  -0.57448  -0.55292  -0.55182  -0.52920
 Alpha  occ. eigenvalues --   -0.52523  -0.52424  -0.52100  -0.49920  -0.49866
 Alpha  occ. eigenvalues --   -0.48080  -0.47696  -0.46633  -0.46576  -0.45795
 Alpha  occ. eigenvalues --   -0.45728  -0.45707  -0.45675  -0.43737  -0.43713
 Alpha virt. eigenvalues --    0.22319   0.22996   0.23497   0.24843   0.26614
 Alpha virt. eigenvalues --    0.26622   0.26785   0.27191   0.27804   0.29063
 Alpha virt. eigenvalues --    0.30286   0.30963   0.31358   0.31526   0.32460

 Mulliken charges:
               1
     1  C   -0.297670
     2  C   -0.301394
     3  C   -0.482560
     4  H    0.149586
     5  H    0.149456
     6  H    0.152249
     7  H    0.151347
     8  H    0.154083
     9  H    0.154081
    10  H    0.171449
    11  C   -0.298305
    12  C   -0.299596
    13  C   -0.475676
    14  H    0.149255
    15  H    0.149435
    16  H    0.151925
    17  H    0.151932
    18  H    0.155121
    19  H    0.155113
    20  H    0.160203
    21  C   -0.298211
    22  C   -0.299586
    23  C   -0.475690
    24  H    0.149607
    25  H    0.149463
    26  H    0.151910
    27  H    0.151916
    28  H    0.155158
    29  H    0.155164
    30  H    0.160236
    31  C   -0.298566
    32  C   -0.300261
    33  C   -0.483234
    34  H    0.149431
    35  H    0.149548
    36  H    0.151821
    37  H    0.151670
    38  H    0.155097
    39  H    0.154091
    40  H    0.170403
 Sum of Mulliken charges =  -0.00000

 Dipole moment (field-independent basis, Debye):
    X=             -0.0141    Y=              0.0009    Z=             -0.0011  Tot=              0.0141
 Quadrupole moment (field-independent basis, Debye-Ang):
   XX=            -86.1739   YY=            -86.1419   ZZ=            -82.7286
   XY=             -0.0808   XZ=             -0.0901   YZ=             -0.3866

 Normal termination of Gaussian 16 at Thu May  6 03:45:57 2021.
