 Gaussian 16, Revision A.03,
 Gaussian 16:  EM64L-G16RevA.03 25-Dec-2016

 -------------
 #p 6-31g* mp2
 -------------

 ------------------------------------------------------
 Input file generated by CHIRIPA (05-May-2021 14:51:10)
 ------------------------------------------------------
 Symbolic Z-matrix:
 Charge =  0 Multiplicity = 1

                         Standard orientation:
 ---------------------------------------------------------------------
 Center     Atomic      Atomic             Coordinates (Angstroms)
 Number     Number       Type             X           Y           Z
 ---------------------------------------------------------------------
      1          6           0        4.160344    0.179619   -0.522353
      2          6           0        4.630325   -1.164563    0.034671
      3          6           0        5.750738   -1.789863   -0.796875
      4          1           0        3.817490    0.040940   -1.556841
      5          1           0        5.014562    0.869403   -0.565987
      6          1           0        3.775186   -1.851169    0.078538
      7          1           0        4.971921   -1.022704    1.068018
      8          1           0        6.621324   -1.126889   -0.830742
      9          1           0        5.417789   -1.960061   -1.825844
     10          1           0        6.071480   -2.750034   -0.380874
     11          6           0        3.040541    0.817232    0.298146
     12          6           0        2.570559    2.161414   -0.258878
     13          6           0        1.450146    2.786714    0.572668
     14          1           0        2.186322    0.127448    0.341781
     15          1           0        3.383394    0.955910    1.332634
     16          1           0        2.228964    2.019554   -1.292224
     17          1           0        3.425699    2.848020   -0.302744
     18          1           0        1.783095    2.956912    1.601638
     19          1           0        0.579561    2.123739    0.606536
     20          1           0        1.129404    3.746884    0.156667
     21          6           0       -2.863649   -0.641281   -0.029883
     22          6           0       -2.066903   -1.016481    1.220079
     23          6           0       -0.594612   -1.299345    0.919851
     24          1           0       -2.787418   -1.455380   -0.763623
     25          1           0       -2.406974    0.243012   -0.495577
     26          1           0       -2.525767   -1.898975    1.684047
     27          1           0       -2.145199   -0.201476    1.951005
     28          1           0       -0.115648   -0.419638    0.477910
     29          1           0       -0.498379   -2.126782    0.209436
     30          1           0       -0.043775   -1.565559    1.827359
     31          6           0       -4.337235   -0.355570    0.254090
     32          6           0       -5.133981    0.019631   -0.995872
     33          6           0       -6.606273    0.302494   -0.695644
     34          1           0       -4.793910   -1.239862    0.719784
     35          1           0       -4.413466    0.458530    0.987830
     36          1           0       -5.055686   -0.795375   -1.726798
     37          1           0       -4.675117    0.902124   -1.459841
     38          1           0       -6.702505    1.129931    0.014770
     39          1           0       -7.085237   -0.577212   -0.253704
     40          1           0       -7.157109    0.568708   -1.603152
 ---------------------------------------------------------------------

 SCF Done:  E(RHF) =  -470.732995107     A.U. after   11 cycles
 E2 =    -0.1583096263D+01 EUMP2 =    -0.47231609137056D+03

 The electronic state is 1-A.
 Alpha  occ. eigenvalues --  -11.21643 -11.21617 -11.21585 -11.21547 -11.21437
 Alpha  occ. eigenvalues --  -11.21375 -11.21335 -11.21261 -11.21124 -11.21095
 Alpha  occ. eigenvalues --  -11.21081 -11.21032  -1.08464  -1.08383  -1.03571
 Alpha  occ. eigenvalues --   -1.03497  -0.96020  -0.95950  -0.87046  -0.86964
 Alpha  occ. eigenvalues --   -0.79663  -0.79538  -0.78295  -0.78169  -0.65154
 Alpha  occ. eigenvalues --   -0.64976  -0.61083  -0.60800  -0.59381  -0.59320
 Alpha  occ. eigenvalues --   -0.57624  -0.57561  -0.55318  -0.55246  -0.52728
 Alpha  occ. eigenvalues --   -0.52647  -0.52464  -0.52359  -0.50016  -0.49890
 Alpha  occ. eigenvalues --   -0.48032  -0.47829  -0.46805  -0.46498  -0.45906
 Alpha  occ. eigenvalues --   -0.45766  -0.45713  -0.45373  -0.43810  -0.43744
 Alpha virt. eigenvalues --    0.20734   0.22964   0.23649   0.24893   0.25852
 Alpha virt. eigenvalues --    0.26487   0.27182   0.27436   0.28128   0.29256
 Alpha virt. eigenvalues --    0.30313   0.31648   0.31707   0.31860   0.31995

 Mulliken charges:
               1
     1  C   -0.297557
     2  C   -0.299865
     3  C   -0.475666
     4  H    0.149350
     5  H    0.149117
     6  H    0.152677
     7  H    0.151706
     8  H    0.155017
     9  H    0.155082
    10  H    0.160075
    11  C   -0.306976
    12  C   -0.299346
    13  C   -0.478846
    14  H    0.159558
    15  H    0.149118
    16  H    0.151464
    17  H    0.151990
    18  H    0.155606
    19  H    0.156682
    20  H    0.160222
    21  C   -0.298715
    22  C   -0.299741
    23  C   -0.482906
    24  H    0.149663
    25  H    0.149342
    26  H    0.152211
    27  H    0.152554
    28  H    0.161155
    29  H    0.155045
    30  H    0.161442
    31  C   -0.298335
    32  C   -0.299709
    33  C   -0.475739
    34  H    0.149632
    35  H    0.149941
    36  H    0.151893
    37  H    0.152055
    38  H    0.155300
    39  H    0.155194
    40  H    0.160310
 Sum of Mulliken charges =  -0.00000

 Dipole moment (field-independent basis, Debye):
    X=             -0.0289    Y=             -0.0188    Z=              0.0141  Tot=              0.0373
 Quadrupole moment (field-independent basis, Debye-Ang):
   XX=            -86.1890   YY=            -83.9957   ZZ=            -84.6779
   XY=              1.2588   XZ=              0.9229   YZ=              0.1372

 Normal termination of Gaussian 16 at Wed May  5 21:24:48 2021.
