 Gaussian 16, Revision A.03,
 Gaussian 16:  EM64L-G16RevA.03 25-Dec-2016

 -------------
 #p 6-31g* mp2
 -------------

 ------------------------------------------------------
 Input file generated by CHIRIPA (05-May-2021 14:51:11)
 ------------------------------------------------------
 Symbolic Z-matrix:
 Charge =  0 Multiplicity = 1

                         Standard orientation:
 ---------------------------------------------------------------------
 Center     Atomic      Atomic             Coordinates (Angstroms)
 Number     Number       Type             X           Y           Z
 ---------------------------------------------------------------------
      1          6           0        2.484284    0.051073   -0.401936
      2          6           0        3.890053   -0.234796   -0.931161
      3          6           0        3.996438   -1.594664   -1.621985
      4          1           0        2.195587   -0.742421    0.300891
      5          1           0        1.769887    0.005371   -1.235568
      6          1           0        4.601774   -0.187204   -0.097013
      7          1           0        4.175512    0.559572   -1.632665
      8          1           0        3.308884   -1.649688   -2.472186
      9          1           0        3.737568   -2.400708   -0.927809
     10          1           0        5.009693   -1.778493   -1.992636
     11          6           0        2.362038    1.406872    0.291312
     12          6           0        0.956269    1.692741    0.820537
     13          6           0        0.849884    3.052608    1.511361
     14          1           0        3.076435    1.452574    1.124944
     15          1           0        2.650735    2.200365   -0.411515
     16          1           0        0.670810    0.898372    1.522041
     17          1           0        0.244548    1.645148   -0.013611
     18          1           0        1.108754    3.858652    0.817186
     19          1           0        1.537438    3.107633    2.361562
     20          1           0       -0.163371    3.236437    1.882012
     21          6           0       -1.737175   -0.888273    0.351081
     22          6           0       -1.701720   -2.206700    1.124692
     23          6           0       -0.322647   -2.511543    1.710374
     24          1           0       -0.993880   -0.924599   -0.457088
     25          1           0       -1.432705   -0.070826    1.019268
     26          1           0       -2.007499   -3.021231    0.455621
     27          1           0       -2.445320   -2.167305    1.930993
     28          1           0       -0.012953   -1.719061    2.399333
     29          1           0        0.427355   -2.577840    0.915578
     30          1           0       -0.319945   -3.458439    2.259228
     31          6           0       -3.109147   -0.569672   -0.240457
     32          6           0       -3.144603    0.748756   -1.014068
     33          6           0       -4.523675    1.053598   -1.599751
     34          1           0       -3.413617   -1.387119   -0.908644
     35          1           0       -3.852443   -0.533346    0.567711
     36          1           0       -2.401002    0.709361   -1.820370
     37          1           0       -2.838823    1.563287   -0.344998
     38          1           0       -5.273678    1.119895   -0.804954
     39          1           0       -4.833370    0.261118   -2.288709
     40          1           0       -4.526378    2.000495   -2.148604
 ---------------------------------------------------------------------

 SCF Done:  E(RHF) =  -470.731806467     A.U. after   11 cycles
 E2 =    -0.1585347301D+01 EUMP2 =    -0.47231715376740D+03

 The electronic state is 1-A.
 Alpha  occ. eigenvalues --  -11.21612 -11.21583 -11.21566 -11.21484 -11.21357
 Alpha  occ. eigenvalues --  -11.21340 -11.21298 -11.21210 -11.21090 -11.21078
 Alpha  occ. eigenvalues --  -11.21077 -11.21050  -1.08461  -1.08330  -1.03534
 Alpha  occ. eigenvalues --   -1.03495  -0.95989  -0.95938  -0.87021  -0.86944
 Alpha  occ. eigenvalues --   -0.79691  -0.79552  -0.78559  -0.77804  -0.65087
 Alpha  occ. eigenvalues --   -0.64983  -0.61017  -0.60820  -0.59381  -0.59294
 Alpha  occ. eigenvalues --   -0.57691  -0.57470  -0.55295  -0.55213  -0.52702
 Alpha  occ. eigenvalues --   -0.52636  -0.52506  -0.52287  -0.49956  -0.49869
 Alpha  occ. eigenvalues --   -0.48134  -0.47902  -0.46773  -0.46447  -0.46349
 Alpha  occ. eigenvalues --   -0.45741  -0.45471  -0.44891  -0.43766  -0.43722
 Alpha virt. eigenvalues --    0.21060   0.22465   0.23318   0.23725   0.24829
 Alpha virt. eigenvalues --    0.26029   0.26349   0.27950   0.29081   0.29547
 Alpha virt. eigenvalues --    0.30557   0.31318   0.31530   0.31964   0.32023

 Mulliken charges:
               1
     1  C   -0.304402
     2  C   -0.299324
     3  C   -0.475895
     4  H    0.156217
     5  H    0.148992
     6  H    0.152015
     7  H    0.151812
     8  H    0.154687
     9  H    0.154969
    10  H    0.160434
    11  C   -0.297591
    12  C   -0.305878
    13  C   -0.476112
    14  H    0.148972
    15  H    0.149132
    16  H    0.155533
    17  H    0.156960
    18  H    0.155230
    19  H    0.154878
    20  H    0.158966
    21  C   -0.304221
    22  C   -0.299465
    23  C   -0.480101
    24  H    0.151706
    25  H    0.157425
    26  H    0.151503
    27  H    0.151374
    28  H    0.154956
    29  H    0.158664
    30  H    0.160226
    31  C   -0.297770
    32  C   -0.300745
    33  C   -0.475621
    34  H    0.148939
    35  H    0.149110
    36  H    0.151130
    37  H    0.152610
    38  H    0.155281
    39  H    0.155282
    40  H    0.160122
 Sum of Mulliken charges =  -0.00000

 Dipole moment (field-independent basis, Debye):
    X=             -0.0008    Y=             -0.0051    Z=              0.0063  Tot=              0.0082
 Quadrupole moment (field-independent basis, Debye-Ang):
   XX=            -85.7257   YY=            -85.5299   ZZ=            -83.8198
   XY=              0.2580   XZ=             -0.3261   YZ=             -0.3119

 Normal termination of Gaussian 16 at Wed May  5 18:15:59 2021.
