 Gaussian 16, Revision A.03,
 Gaussian 16:  EM64L-G16RevA.03 25-Dec-2016

 -------------
 #p 6-31g* mp2
 -------------

 ------------------------------------------------------
 Input file generated by CHIRIPA (05-May-2021 14:55:22)
 ------------------------------------------------------
 Symbolic Z-matrix:
 Charge =  0 Multiplicity = 1

                         Standard orientation:
 ---------------------------------------------------------------------
 Center     Atomic      Atomic             Coordinates (Angstroms)
 Number     Number       Type             X           Y           Z
 ---------------------------------------------------------------------
      1          6           0        1.576156    1.975489   -0.195491
      2          6           0        2.851598    2.029586    0.376212
      3          6           0        3.643593    0.880217    0.455213
      4          6           0        3.126395   -0.311817   -0.049617
      5          6           0        1.859569   -0.397809   -0.624984
      6          6           0        1.085079    0.764100   -0.693387
      7          1           0        0.967714    2.873218   -0.252744
      8          1           0        3.235558    2.968988    0.763694
      9          1           0        4.634463    0.893777    0.892718
     10          1           0        1.504034   -1.348777   -1.002706
     11          1           0        0.094917    0.719120   -1.137912
     12          7           0        3.955580   -1.535240    0.028408
     13          8           0        3.476951   -2.573161   -0.423558
     14          8           0        5.068422   -1.433074    0.540052
     15          6           0       -4.100190   -0.462677    0.459782
     16          6           0       -5.031706   -1.336803   -0.380554
     17          6           0       -5.570406   -2.540560    0.393115
     18          1           0       -3.261454   -1.073416    0.820980
     19          1           0       -4.640288   -0.114910    1.351269
     20          1           0       -4.490440   -1.681688   -1.270893
     21          1           0       -5.868222   -0.723867   -0.739954
     22          1           0       -6.133940   -2.212471    1.272540
     23          1           0       -4.748330   -3.175734    0.738583
     24          1           0       -6.234053   -3.151727   -0.226487
     25          6           0       -3.553533    0.744742   -0.299844
     26          6           0       -2.622017    1.618869    0.540494
     27          6           0       -2.083317    2.822625   -0.233177
     28          1           0       -3.013435    0.396975   -1.191330
     29          1           0       -4.392268    1.355482   -0.661042
     30          1           0       -1.785501    1.005932    0.899892
     31          1           0       -3.163283    1.963753    1.430831
     32          1           0       -2.905393    3.457799   -0.578645
     33          1           0       -1.519783    2.494536   -1.112602
     34          1           0       -1.419671    3.433792    0.386426
 ---------------------------------------------------------------------

 SCF Done:  E(RHF) =  -669.534717590     A.U. after   15 cycles
 E2 =    -0.2092718551D+01 EUMP2 =    -0.67162743614152D+03

 The electronic state is 1-A.
 Alpha  occ. eigenvalues --  -20.60740 -20.60735 -15.85793 -11.31147 -11.27725
 Alpha  occ. eigenvalues --  -11.27719 -11.27390 -11.26711 -11.26694 -11.22622
 Alpha  occ. eigenvalues --  -11.22471 -11.22290 -11.22114 -11.22016 -11.21439
 Alpha  occ. eigenvalues --   -1.59816  -1.39370  -1.19319  -1.09246  -1.08705
 Alpha  occ. eigenvalues --   -1.04735  -1.04350  -0.96844  -0.95539  -0.87857
 Alpha  occ. eigenvalues --   -0.86120  -0.82384  -0.80427  -0.78984  -0.77443
 Alpha  occ. eigenvalues --   -0.72013  -0.71139  -0.70434  -0.66001  -0.64966
 Alpha  occ. eigenvalues --   -0.64714  -0.62246  -0.61519  -0.60263  -0.58406
 Alpha  occ. eigenvalues --   -0.56140  -0.55223  -0.53478  -0.53250  -0.53034
 Alpha  occ. eigenvalues --   -0.52781  -0.50764  -0.48806  -0.48767  -0.48679
 Alpha  occ. eigenvalues --   -0.47459  -0.46532  -0.46434  -0.44778  -0.44590
 Alpha  occ. eigenvalues --   -0.37275  -0.36326
 Alpha virt. eigenvalues --    0.05096   0.11214   0.16559   0.19150   0.22641
 Alpha virt. eigenvalues --    0.24019   0.24999   0.26158   0.26558   0.27951
 Alpha virt. eigenvalues --    0.29274   0.29944   0.31252   0.31428   0.32024

 Mulliken charges:
               1
     1  C   -0.173597
     2  C   -0.219347
     3  C   -0.170705
     4  C    0.158362
     5  C   -0.172229
     6  C   -0.223138
     7  H    0.231384
     8  H    0.223277
     9  H    0.275413
    10  H    0.275273
    11  H    0.228084
    12  N    0.488059
    13  O   -0.460712
    14  O   -0.460508
    15  C   -0.299110
    16  C   -0.300185
    17  C   -0.476346
    18  H    0.151180
    19  H    0.151888
    20  H    0.151843
    21  H    0.152776
    22  H    0.156039
    23  H    0.156955
    24  H    0.162135
    25  C   -0.299396
    26  C   -0.305310
    27  C   -0.481617
    28  H    0.144515
    29  H    0.152928
    30  H    0.155735
    31  H    0.157854
    32  H    0.163472
    33  H    0.146645
    34  H    0.158382
 Sum of Mulliken charges =  -0.00000

 Dipole moment (field-independent basis, Debye):
    X=             -3.1569    Y=              4.3035    Z=             -0.1923  Tot=              5.3407
 Quadrupole moment (field-independent basis, Debye-Ang):
   XX=           -109.4007   YY=            -96.9158   ZZ=            -94.5885
   XY=             15.8403   XZ=              0.9128   YZ=              1.8514

 Normal termination of Gaussian 16 at Thu May  6 04:40:45 2021.
