 Gaussian 16, Revision A.03,
 Gaussian 16:  EM64L-G16RevA.03 25-Dec-2016

 -------------
 #p 6-31g* mp2
 -------------

 ------------------------------------------------------
 Input file generated by CHIRIPA (05-May-2021 14:57:22)
 ------------------------------------------------------
 Symbolic Z-matrix:
 Charge =  0 Multiplicity = 1

                         Standard orientation:
 ---------------------------------------------------------------------
 Center     Atomic      Atomic             Coordinates (Angstroms)
 Number     Number       Type             X           Y           Z
 ---------------------------------------------------------------------
      1          6           0        1.479896   -2.024433    0.876762
      2          6           0        2.335465   -1.427537    1.808555
      3          6           0        3.239418   -0.438089    1.410548
      4          6           0        3.261109   -0.068063    0.066710
      5          6           0        2.421483   -0.644051   -0.885422
      6          6           0        1.525555   -1.631477   -0.464888
      7          1           0        0.780800   -2.792274    1.194693
      8          1           0        2.302206   -1.730724    2.851155
      9          1           0        3.913064    0.040520    2.110942
     10          1           0        2.477832   -0.320880   -1.917800
     11          1           0        0.862293   -2.093304   -1.190728
     12          7           0        4.213836    0.978352   -0.366566
     13          8           0        4.213363    1.286669   -1.556347
     14          8           0        4.943017    1.470400    0.491816
     15          6           0       -2.929263   -2.185652   -0.808212
     16          6           0       -3.824656   -1.799154    0.194490
     17          6           0       -3.929916   -0.457685    0.573872
     18          6           0       -3.120990    0.475078   -0.073337
     19          6           0       -2.219353    0.121229   -1.075900
     20          6           0       -2.130877   -1.225921   -1.439094
     21          1           0       -2.854013   -3.229944   -1.096636
     22          1           0       -4.445940   -2.542327    0.686167
     23          1           0       -4.614687   -0.130915    1.347001
     24          1           0       -1.613158    0.884906   -1.547856
     25          1           0       -1.434621   -1.523192   -2.218133
     26          7           0       -3.223539    1.898238    0.319729
     27          8           0       -2.499788    2.700715   -0.265806
     28          8           0       -4.025727    2.184284    1.205904
 ---------------------------------------------------------------------

 SCF Done:  E(RHF) =  -868.336235004     A.U. after   16 cycles
 E2 =    -0.2600861830D+01 EUMP2 =    -0.87093709683412D+03

 The electronic state is 1-A.
 Alpha  occ. eigenvalues --  -20.61181 -20.61169 -20.60903 -20.60894 -15.86240
 Alpha  occ. eigenvalues --  -15.85961 -11.31799 -11.31440 -11.28415 -11.28392
 Alpha  occ. eigenvalues --  -11.28248 -11.28078 -11.27993 -11.27815 -11.27551
 Alpha  occ. eigenvalues --  -11.27452 -11.27158 -11.27032  -1.60250  -1.59973
 Alpha  occ. eigenvalues --   -1.39797  -1.39524  -1.20016  -1.19632  -1.09389
 Alpha  occ. eigenvalues --   -1.09005  -1.05458  -1.05066  -0.96176  -0.95820
 Alpha  occ. eigenvalues --   -0.86866  -0.86451  -0.83014  -0.82660  -0.78024
 Alpha  occ. eigenvalues --   -0.77679  -0.72453  -0.72179  -0.71577  -0.71294
 Alpha  occ. eigenvalues --   -0.71130  -0.70747  -0.65673  -0.65611  -0.65293
 Alpha  occ. eigenvalues --   -0.65013  -0.62839  -0.62368  -0.55978  -0.55565
 Alpha  occ. eigenvalues --   -0.53850  -0.53611  -0.53324  -0.53079  -0.49231
 Alpha  occ. eigenvalues --   -0.49194  -0.48946  -0.48926  -0.45159  -0.44906
 Alpha  occ. eigenvalues --   -0.38065  -0.37664  -0.37125  -0.36486
 Alpha virt. eigenvalues --    0.04515   0.04882   0.10365   0.11095   0.15868
 Alpha virt. eigenvalues --    0.16405   0.19207   0.21844   0.25008   0.27391
 Alpha virt. eigenvalues --    0.28166   0.28428   0.29519   0.31388   0.31967

 Mulliken charges:
               1
     1  C   -0.169340
     2  C   -0.218033
     3  C   -0.169312
     4  C    0.160225
     5  C   -0.172844
     6  C   -0.215151
     7  H    0.223818
     8  H    0.224696
     9  H    0.277579
    10  H    0.273692
    11  H    0.213106
    12  N    0.488379
    13  O   -0.460298
    14  O   -0.458399
    15  C   -0.175192
    16  C   -0.219188
    17  C   -0.170109
    18  C    0.158682
    19  C   -0.166861
    20  C   -0.220990
    21  H    0.224380
    22  H    0.224693
    23  H    0.277692
    24  H    0.279066
    25  H    0.217821
    26  N    0.487880
    27  O   -0.456708
    28  O   -0.459283
 Sum of Mulliken charges =  -0.00000

 Dipole moment (field-independent basis, Debye):
    X=             -3.0292    Y=             -8.4916    Z=              0.3083  Tot=              9.0210
 Quadrupole moment (field-independent basis, Debye-Ang):
   XX=           -126.3591   YY=           -110.2815   ZZ=            -98.2355
   XY=              5.1404   XZ=              8.2856   YZ=             -1.3759

 Normal termination of Gaussian 16 at Thu May  6 08:06:56 2021.
