 Gaussian 16, Revision A.03,
 Gaussian 16:  EM64L-G16RevA.03 25-Dec-2016

 -------------
 #p 6-31g* mp2
 -------------

 ------------------------------------------------------
 Input file generated by CHIRIPA (05-May-2021 14:55:24)
 ------------------------------------------------------
 Symbolic Z-matrix:
 Charge =  0 Multiplicity = 1

                         Standard orientation:
 ---------------------------------------------------------------------
 Center     Atomic      Atomic             Coordinates (Angstroms)
 Number     Number       Type             X           Y           Z
 ---------------------------------------------------------------------
      1          6           0       -1.114344   -2.837343   -0.236024
      2          6           0       -0.560279   -1.955786    0.697995
      3          6           0       -1.135365   -0.700581    0.917725
      4          6           0       -2.269185   -0.357957    0.182637
      5          6           0       -2.844573   -1.214257   -0.754897
      6          6           0       -2.252716   -2.464422   -0.958215
      7          1           0       -0.661088   -3.810460   -0.400341
      8          1           0        0.323762   -2.242726    1.260296
      9          1           0       -0.727039    0.001319    1.634680
     10          1           0       -3.726188   -0.900029   -1.300272
     11          1           0       -2.685170   -3.147015   -1.684229
     12          7           0       -2.886880    0.968205    0.406569
     13          8           0       -3.885473    1.246255   -0.253839
     14          8           0       -2.360742    1.704490    1.238254
     15          6           0        3.426380    0.429099    0.063996
     16          6           0        3.499662   -1.084039   -0.143439
     17          6           0        4.810211   -1.687337    0.362808
     18          1           0        4.273136    0.904638   -0.449630
     19          1           0        3.544573    0.651708    1.133515
     20          1           0        3.379981   -1.303817   -1.212078
     21          1           0        2.652525   -1.556014    0.370579
     22          1           0        4.933433   -1.497196    1.433913
     23          1           0        5.665021   -1.243565   -0.157738
     24          1           0        4.841363   -2.769865    0.204626
     25          6           0        2.122116    1.046805   -0.437067
     26          6           0        2.048833    2.559943   -0.229631
     27          6           0        0.738284    3.163241   -0.735878
     28          1           0        2.003921    0.824196   -1.506585
     29          1           0        1.275359    0.571265    0.076559
     30          1           0        2.895969    3.031918   -0.743649
     31          1           0        2.168514    2.779721    0.839008
     32          1           0       -0.116527    2.719469   -0.215332
     33          1           0        0.615062    2.973099   -1.806983
     34          1           0        0.707132    4.245769   -0.577696
 ---------------------------------------------------------------------

 SCF Done:  E(RHF) =  -669.535088930     A.U. after   15 cycles
 E2 =    -0.2094606761D+01 EUMP2 =    -0.67162969569070D+03

 The electronic state is 1-A.
 Alpha  occ. eigenvalues --  -20.60976 -20.60970 -15.85985 -11.31294 -11.27864
 Alpha  occ. eigenvalues --  -11.27854 -11.27583 -11.26857 -11.26847 -11.22128
 Alpha  occ. eigenvalues --  -11.21642 -11.21551 -11.21400 -11.21332 -11.20425
 Alpha  occ. eigenvalues --   -1.60022  -1.39582  -1.19470  -1.08868  -1.08583
 Alpha  occ. eigenvalues --   -1.04873  -1.03594  -0.96009  -0.95716  -0.87029
 Alpha  occ. eigenvalues --   -0.86265  -0.82557  -0.79711  -0.78382  -0.77587
 Alpha  occ. eigenvalues --   -0.72213  -0.71332  -0.70580  -0.65274  -0.65116
 Alpha  occ. eigenvalues --   -0.64883  -0.62209  -0.60991  -0.59450  -0.57618
 Alpha  occ. eigenvalues --   -0.55366  -0.55301  -0.53240  -0.52992  -0.52682
 Alpha  occ. eigenvalues --   -0.52389  -0.49967  -0.48974  -0.48971  -0.47999
 Alpha  occ. eigenvalues --   -0.46787  -0.45951  -0.45812  -0.44820  -0.43845
 Alpha  occ. eigenvalues --   -0.37428  -0.36365
 Alpha virt. eigenvalues --    0.04870   0.11045   0.16230   0.19985   0.23114
 Alpha virt. eigenvalues --    0.23832   0.25471   0.26872   0.27917   0.28006
 Alpha virt. eigenvalues --    0.29553   0.30149   0.31590   0.31690   0.31942

 Mulliken charges:
               1
     1  C   -0.170921
     2  C   -0.215820
     3  C   -0.172108
     4  C    0.158646
     5  C   -0.170672
     6  C   -0.218363
     7  H    0.226410
     8  H    0.226003
     9  H    0.275616
    10  H    0.275923
    11  H    0.223909
    12  N    0.488169
    13  O   -0.457586
    14  O   -0.458994
    15  C   -0.298306
    16  C   -0.299981
    17  C   -0.475625
    18  H    0.151897
    19  H    0.148321
    20  H    0.153468
    21  H    0.141649
    22  H    0.155289
    23  H    0.158300
    24  H    0.158008
    25  C   -0.302843
    26  C   -0.299309
    27  C   -0.483908
    28  H    0.149559
    29  H    0.148724
    30  H    0.150251
    31  H    0.151494
    32  H    0.169573
    33  H    0.151108
    34  H    0.162120
 Sum of Mulliken charges =  -0.00000

 Dipole moment (field-independent basis, Debye):
    X=              1.9967    Y=             -4.6464    Z=             -0.8134  Tot=              5.1222
 Quadrupole moment (field-independent basis, Debye-Ang):
   XX=           -103.0807   YY=            -91.9849   ZZ=            -92.4677
   XY=             11.3142   XZ=              4.2683   YZ=              0.4949

 Normal termination of Gaussian 16 at Thu May  6 04:44:10 2021.
