 Gaussian 16, Revision A.03,
 Gaussian 16:  EM64L-G16RevA.03 25-Dec-2016

 -------------
 #p 6-31g* mp2
 -------------

 ------------------------------------------------------
 Input file generated by CHIRIPA (05-May-2021 14:53:17)
 ------------------------------------------------------
 Symbolic Z-matrix:
 Charge =  0 Multiplicity = 1

                         Standard orientation:
 ---------------------------------------------------------------------
 Center     Atomic      Atomic             Coordinates (Angstroms)
 Number     Number       Type             X           Y           Z
 ---------------------------------------------------------------------
      1          6           0       -3.163970    0.169417    0.671228
      2          6           0       -2.217762   -0.975262    1.035076
      3          6           0       -0.919147   -0.487152    1.677837
      4          1           0       -2.650206    0.857675   -0.013821
      5          1           0       -3.396346    0.745871    1.577372
      6          1           0       -1.988338   -1.550214    0.128759
      7          1           0       -2.733903   -1.660976    1.719188
      8          1           0       -1.129579    0.068708    2.597260
      9          1           0       -0.379777    0.180099    0.997795
     10          1           0       -0.257509   -1.321761    1.929877
     11          6           0       -4.466574   -0.302644    0.027715
     12          6           0       -5.412782    0.842035   -0.336133
     13          6           0       -6.711397    0.353925   -0.978894
     14          1           0       -4.234198   -0.879098   -0.878429
     15          1           0       -4.980338   -0.990902    0.712764
     16          1           0       -4.896641    1.527749   -1.020245
     17          1           0       -5.642206    1.416987    0.570184
     18          1           0       -7.250767   -0.313326   -0.298852
     19          1           0       -6.500965   -0.201935   -1.898317
     20          1           0       -7.373035    1.188534   -1.230934
     21          6           0        2.571694   -2.417746   -0.587351
     22          6           0        1.569056   -1.496028   -0.906216
     23          6           0        1.784611   -0.125212   -0.736077
     24          6           0        3.020220    0.290812   -0.242637
     25          6           0        4.038943   -0.602905    0.084115
     26          6           0        3.801269   -1.969034   -0.094074
     27          1           0        2.395655   -3.480809   -0.722645
     28          1           0        0.613176   -1.841633   -1.289485
     29          1           0        1.025847    0.610071   -0.974939
     30          1           0        4.981527   -0.228139    0.464251
     31          1           0        4.581759   -2.682576    0.154399
     32          7           0        3.260126    1.739552   -0.058258
     33          8           0        4.357384    2.080530    0.378088
     34          8           0        2.346365    2.506665   -0.353578
 ---------------------------------------------------------------------

 SCF Done:  E(RHF) =  -669.534111486     A.U. after   15 cycles
 E2 =    -0.2092931939D+01 EUMP2 =    -0.67162704342462D+03

 The electronic state is 1-A.
 Alpha  occ. eigenvalues --  -20.60771 -20.60766 -15.85824 -11.31184 -11.27763
 Alpha  occ. eigenvalues --  -11.27750 -11.27502 -11.26768 -11.26757 -11.22080
 Alpha  occ. eigenvalues --  -11.21796 -11.21720 -11.21653 -11.21305 -11.21245
 Alpha  occ. eigenvalues --   -1.59845  -1.39400  -1.19368  -1.08764  -1.08742
 Alpha  occ. eigenvalues --   -1.04788  -1.03821  -0.96258  -0.95594  -0.87271
 Alpha  occ. eigenvalues --   -0.86174  -0.82430  -0.79895  -0.78552  -0.77480
 Alpha  occ. eigenvalues --   -0.72044  -0.71168  -0.70495  -0.65408  -0.65016
 Alpha  occ. eigenvalues --   -0.64787  -0.62211  -0.61178  -0.59626  -0.57863
 Alpha  occ. eigenvalues --   -0.55623  -0.55250  -0.53255  -0.52927  -0.52763
 Alpha  occ. eigenvalues --   -0.52612  -0.50162  -0.48802  -0.48799  -0.48197
 Alpha  occ. eigenvalues --   -0.46944  -0.46086  -0.46024  -0.44802  -0.44075
 Alpha  occ. eigenvalues --   -0.37344  -0.36276
 Alpha virt. eigenvalues --    0.05050   0.11171   0.16486   0.19888   0.22874
 Alpha virt. eigenvalues --    0.23974   0.25790   0.26024   0.27633   0.28217
 Alpha virt. eigenvalues --    0.28842   0.29685   0.31446   0.31463   0.32175

 Mulliken charges:
               1
     1  C   -0.298262
     2  C   -0.301404
     3  C   -0.476318
     4  H    0.149317
     5  H    0.153515
     6  H    0.141255
     7  H    0.153908
     8  H    0.158970
     9  H    0.155749
    10  H    0.159741
    11  C   -0.298045
    12  C   -0.300089
    13  C   -0.475848
    14  H    0.146619
    15  H    0.150133
    16  H    0.153161
    17  H    0.153623
    18  H    0.155212
    19  H    0.154404
    20  H    0.161655
    21  C   -0.172270
    22  C   -0.214754
    23  C   -0.170315
    24  C    0.158403
    25  C   -0.171202
    26  C   -0.218396
    27  H    0.225657
    28  H    0.224815
    29  H    0.274730
    30  H    0.275595
    31  H    0.223380
    32  N    0.488444
    33  O   -0.460214
    34  O   -0.461168
 Sum of Mulliken charges =  -0.00000

 Dipole moment (field-independent basis, Debye):
    X=             -0.8719    Y=             -5.0564    Z=             -0.5832  Tot=              5.1641
 Quadrupole moment (field-independent basis, Debye-Ang):
   XX=            -96.2099   YY=            -98.2710   ZZ=            -93.9346
   XY=            -17.2775   XZ=             -0.9712   YZ=              0.5656

 Normal termination of Gaussian 16 at Thu May  6 13:57:57 2021.
