 Gaussian 16, Revision A.03,
 Gaussian 16:  EM64L-G16RevA.03 25-Dec-2016

 -------------
 #p 6-31g* mp2
 -------------

 ------------------------------------------------------
 Input file generated by CHIRIPA (05-May-2021 14:51:10)
 ------------------------------------------------------
 Symbolic Z-matrix:
 Charge =  0 Multiplicity = 1

                         Standard orientation:
 ---------------------------------------------------------------------
 Center     Atomic      Atomic             Coordinates (Angstroms)
 Number     Number       Type             X           Y           Z
 ---------------------------------------------------------------------
      1          6           0       -2.770243    0.491479   -0.372248
      2          6           0       -2.969951    1.813047    0.370423
      3          6           0       -3.434105    2.943363   -0.548674
      4          1           0       -2.035783    0.637324   -1.176140
      5          1           0       -3.713350    0.206034   -0.858525
      6          1           0       -2.027125    2.095211    0.856302
      7          1           0       -3.703878    1.663991    1.172762
      8          1           0       -4.386774    2.687214   -1.023448
      9          1           0       -2.700494    3.120884   -1.341707
     10          1           0       -3.570595    3.878820    0.002825
     11          6           0       -2.306282   -0.648133    0.533154
     12          6           0       -2.106574   -1.969701   -0.209517
     13          6           0       -1.642420   -3.100018    0.709580
     14          1           0       -1.363175   -0.362688    1.019431
     15          1           0       -3.040742   -0.793979    1.337046
     16          1           0       -1.372647   -1.820646   -1.011856
     17          1           0       -3.049400   -2.251866   -0.695396
     18          1           0       -2.376031   -3.277539    1.502613
     19          1           0       -0.689751   -2.843869    1.184355
     20          1           0       -1.505929   -4.035475    0.158082
     21          6           0        2.254699   -0.494545   -0.498594
     22          6           0        2.422416   -1.865248    0.157934
     23          6           0        1.850210   -3.001152   -0.690650
     24          1           0        1.187494   -0.312729   -0.685572
     25          1           0        2.747040   -0.503519   -1.480895
     26          1           0        1.931096   -1.853259    1.139299
     27          1           0        3.489330   -2.043739    0.343546
     28          1           0        2.347065   -3.041815   -1.665372
     29          1           0        0.779977   -2.850252   -0.865097
     30          1           0        1.980810   -3.971993   -0.202521
     31          6           0        2.821826    0.651200    0.337688
     32          6           0        2.654109    2.021902   -0.318841
     33          6           0        3.226314    3.157807    0.529744
     34          1           0        2.329485    0.660174    1.319989
     35          1           0        3.889030    0.469384    0.524665
     36          1           0        1.587194    2.200395   -0.504452
     37          1           0        3.145429    2.009915   -1.300205
     38          1           0        4.296548    3.006907    0.704191
     39          1           0        2.729460    3.198470    1.504466
     40          1           0        3.095716    4.128649    0.041615
 ---------------------------------------------------------------------

 SCF Done:  E(RHF) =  -470.732391598     A.U. after   11 cycles
 E2 =    -0.1584787067D+01 EUMP2 =    -0.47231717866495D+03

 The electronic state is 1-A.
 Alpha  occ. eigenvalues --  -11.21669 -11.21657 -11.21655 -11.21634 -11.21476
 Alpha  occ. eigenvalues --  -11.21461 -11.21416 -11.21401 -11.21109 -11.21108
 Alpha  occ. eigenvalues --  -11.21071 -11.20970  -1.08532  -1.08446  -1.03659
 Alpha  occ. eigenvalues --   -1.03493  -0.96121  -0.95914  -0.87109  -0.86952
 Alpha  occ. eigenvalues --   -0.79659  -0.79617  -0.78339  -0.78266  -0.65462
 Alpha  occ. eigenvalues --   -0.64843  -0.61451  -0.60535  -0.59405  -0.59367
 Alpha  occ. eigenvalues --   -0.57720  -0.57541  -0.55746  -0.54846  -0.52764
 Alpha  occ. eigenvalues --   -0.52638  -0.52462  -0.52396  -0.50113  -0.49747
 Alpha  occ. eigenvalues --   -0.48047  -0.47849  -0.46817  -0.46558  -0.46016
 Alpha  occ. eigenvalues --   -0.45837  -0.45731  -0.45558  -0.43867  -0.43786
 Alpha virt. eigenvalues --    0.18754   0.22386   0.23637   0.25298   0.25572
 Alpha virt. eigenvalues --    0.26118   0.26686   0.28126   0.29146   0.30123
 Alpha virt. eigenvalues --    0.30392   0.30595   0.31159   0.32133   0.32374

 Mulliken charges:
               1
     1  C   -0.299240
     2  C   -0.299730
     3  C   -0.475765
     4  H    0.149966
     5  H    0.150050
     6  H    0.151561
     7  H    0.152199
     8  H    0.155363
     9  H    0.155318
    10  H    0.160487
    11  C   -0.298865
    12  C   -0.306160
    13  C   -0.480956
    14  H    0.149562
    15  H    0.150347
    16  H    0.155130
    17  H    0.153071
    18  H    0.156108
    19  H    0.159824
    20  H    0.161424
    21  C   -0.301582
    22  C   -0.301571
    23  C   -0.483644
    24  H    0.151435
    25  H    0.150009
    26  H    0.151817
    27  H    0.152518
    28  H    0.154337
    29  H    0.166642
    30  H    0.160137
    31  C   -0.298316
    32  C   -0.299701
    33  C   -0.475731
    34  H    0.149259
    35  H    0.150159
    36  H    0.151270
    37  H    0.152182
    38  H    0.155387
    39  H    0.155226
    40  H    0.160473
 Sum of Mulliken charges =  -0.00000

 Dipole moment (field-independent basis, Debye):
    X=             -0.0240    Y=             -0.0102    Z=             -0.0018  Tot=              0.0261
 Quadrupole moment (field-independent basis, Debye-Ang):
   XX=            -83.1727   YY=            -86.3382   ZZ=            -85.0909
   XY=              0.1787   XZ=             -0.9471   YZ=              0.0234

 Normal termination of Gaussian 16 at Wed May  5 21:26:13 2021.
