 Gaussian 16, Revision A.03,
 Gaussian 16:  EM64L-G16RevA.03 25-Dec-2016

 -------------
 #p 6-31g* mp2
 -------------

 ------------------------------------------------------
 Input file generated by CHIRIPA (05-May-2021 14:57:26)
 ------------------------------------------------------
 Symbolic Z-matrix:
 Charge =  0 Multiplicity = 1

                         Standard orientation:
 ---------------------------------------------------------------------
 Center     Atomic      Atomic             Coordinates (Angstroms)
 Number     Number       Type             X           Y           Z
 ---------------------------------------------------------------------
      1          6           0       -3.375317    2.519523    0.585175
      2          6           0       -4.451246    1.701002    0.226121
      3          6           0       -4.236451    0.374407   -0.159311
      4          6           0       -2.926855   -0.103107   -0.174419
      5          6           0       -1.834115    0.687568    0.177779
      6          6           0       -2.072482    2.011090    0.559903
      7          1           0       -3.551330    3.548860    0.883303
      8          1           0       -5.464113    2.093171    0.244816
      9          1           0       -5.051078   -0.281180   -0.442164
     10          1           0       -0.835696    0.268323    0.149328
     11          1           0       -1.234981    2.644467    0.838238
     12          7           0       -2.686984   -1.505887   -0.580707
     13          8           0       -1.523725   -1.902675   -0.585731
     14          8           0       -3.666774   -2.182036   -0.886438
     15          6           0        4.118648    1.321543   -1.606248
     16          6           0        4.332718    1.545529   -0.242237
     17          6           0        3.699557    0.748514    0.716107
     18          6           0        2.854992   -0.268233    0.273133
     19          6           0        2.621477   -0.516234   -1.078628
     20          6           0        3.265217    0.293190   -2.019362
     21          1           0        4.614613    1.945503   -2.343874
     22          1           0        4.994974    2.343438    0.081494
     23          1           0        3.847428    0.900000    1.778465
     24          1           0        1.955722   -1.319257   -1.370759
     25          1           0        3.097097    0.116942   -3.078001
     26          7           0        2.179094   -1.118565    1.278367
     27          8           0        1.439748   -2.007882    0.862288
     28          8           0        2.401468   -0.879638    2.463314
 ---------------------------------------------------------------------

 SCF Done:  E(RHF) =  -868.336835466     A.U. after   16 cycles
 E2 =    -0.2601109254D+01 EUMP2 =    -0.87093794472033D+03

 The electronic state is 1-A.
 Alpha  occ. eigenvalues --  -20.60656 -20.60522 -20.60233 -20.60169 -15.85611
 Alpha  occ. eigenvalues --  -15.85251 -11.31178 -11.30789 -11.27795 -11.27661
 Alpha  occ. eigenvalues --  -11.27533 -11.27393 -11.27370 -11.27177 -11.26832
 Alpha  occ. eigenvalues --  -11.26754 -11.26449 -11.26437  -1.59673  -1.59281
 Alpha  occ. eigenvalues --   -1.39205  -1.38823  -1.19368  -1.18984  -1.08733
 Alpha  occ. eigenvalues --   -1.08352  -1.04771  -1.04414  -0.95524  -0.95154
 Alpha  occ. eigenvalues --   -0.86158  -0.85804  -0.82335  -0.81970  -0.77370
 Alpha  occ. eigenvalues --   -0.76973  -0.71851  -0.71437  -0.71006  -0.70609
 Alpha  occ. eigenvalues --   -0.70431  -0.70094  -0.64992  -0.64755  -0.64629
 Alpha  occ. eigenvalues --   -0.64425  -0.62084  -0.61758  -0.55263  -0.54924
 Alpha  occ. eigenvalues --   -0.53131  -0.52838  -0.52732  -0.52513  -0.48620
 Alpha  occ. eigenvalues --   -0.48586  -0.48256  -0.48197  -0.44556  -0.44151
 Alpha  occ. eigenvalues --   -0.37382  -0.36980  -0.36395  -0.36021
 Alpha virt. eigenvalues --    0.05138   0.05540   0.11190   0.11635   0.16565
 Alpha virt. eigenvalues --    0.17001   0.21380   0.21695   0.27154   0.27451
 Alpha virt. eigenvalues --    0.28112   0.28622   0.30624   0.31331   0.32187

 Mulliken charges:
               1
     1  C   -0.171202
     2  C   -0.218775
     3  C   -0.171095
     4  C    0.158013
     5  C   -0.169212
     6  C   -0.218520
     7  H    0.223707
     8  H    0.221991
     9  H    0.274947
    10  H    0.274702
    11  H    0.221563
    12  N    0.487656
    13  O   -0.452886
    14  O   -0.464044
    15  C   -0.171714
    16  C   -0.219494
    17  C   -0.173603
    18  C    0.151740
    19  C   -0.176776
    20  C   -0.219444
    21  H    0.225233
    22  H    0.222439
    23  H    0.274663
    24  H    0.289105
    25  H    0.225514
    26  N    0.483682
    27  O   -0.443293
    28  O   -0.464898
 Sum of Mulliken charges =  -0.00000

 Dipole moment (field-independent basis, Debye):
    X=              1.5844    Y=              7.6476    Z=             -2.1781  Tot=              8.1081
 Quadrupole moment (field-independent basis, Debye-Ang):
   XX=            -81.8744   YY=           -107.0368   ZZ=           -105.7256
   XY=             -4.6370   XZ=            -11.4281   YZ=              3.0592

 Normal termination of Gaussian 16 at Thu May  6 18:09:07 2021.
