 Gaussian 16, Revision A.03,
 Gaussian 16:  EM64L-G16RevA.03 25-Dec-2016

 -------------
 #p 6-31g* mp2
 -------------

 ------------------------------------------------------
 Input file generated by CHIRIPA (05-May-2021 14:55:22)
 ------------------------------------------------------
 Symbolic Z-matrix:
 Charge =  0 Multiplicity = 1

                         Standard orientation:
 ---------------------------------------------------------------------
 Center     Atomic      Atomic             Coordinates (Angstroms)
 Number     Number       Type             X           Y           Z
 ---------------------------------------------------------------------
      1          6           0       -1.879047    1.407963   -0.158255
      2          6           0       -1.788467    0.012315   -0.136278
      3          6           0       -2.943524   -0.773366   -0.080624
      4          6           0       -4.178386   -0.127346   -0.047986
      5          6           0       -4.301388    1.261082   -0.068669
      6          6           0       -3.133008    2.026801   -0.124441
      7          1           0       -0.976597    2.010545   -0.201534
      8          1           0       -0.815965   -0.471007   -0.162441
      9          1           0       -2.902302   -1.855674   -0.062539
     10          1           0       -5.284948    1.714175   -0.041563
     11          1           0       -3.206383    3.110486   -0.141397
     12          7           0       -5.408245   -0.948545    0.010995
     13          8           0       -6.484237   -0.355164    0.038883
     14          8           0       -5.272929   -2.170032    0.028219
     15          6           0        5.811563    0.179664   -0.084578
     16          6           0        6.781727   -0.998795    0.004851
     17          6           0        8.223598   -0.603053   -0.314821
     18          1           0        5.859867    0.610348   -1.094094
     19          1           0        6.138435    0.968024    0.607549
     20          1           0        6.452342   -1.785262   -0.686227
     21          1           0        6.730967   -1.426843    1.014214
     22          1           0        8.575783    0.164750    0.381631
     23          1           0        8.295574   -0.195706   -1.328472
     24          1           0        8.900156   -1.460518   -0.244942
     25          6           0        4.366204   -0.200138    0.232307
     26          6           0        3.396039    0.978321    0.142878
     27          6           0        1.954168    0.582579    0.462550
     28          1           0        4.039331   -0.988497   -0.459820
     29          1           0        4.317899   -0.630822    1.241824
     30          1           0        3.446798    1.406369   -0.866486
     31          1           0        3.725424    1.764789    0.833957
     32          1           0        1.882192    0.175233    1.476202
     33          1           0        1.601983   -0.185223   -0.233902
     34          1           0        1.277610    1.440045    0.392671
 ---------------------------------------------------------------------

 SCF Done:  E(RHF) =  -669.534886951     A.U. after   15 cycles
 E2 =    -0.2091629429D+01 EUMP2 =    -0.67162651638004D+03

 The electronic state is 1-A.
 Alpha  occ. eigenvalues --  -20.60682 -20.60677 -15.85733 -11.31074 -11.27641
 Alpha  occ. eigenvalues --  -11.27620 -11.27345 -11.26656 -11.26572 -11.22647
 Alpha  occ. eigenvalues --  -11.22533 -11.22192 -11.22115 -11.22002 -11.21494
 Alpha  occ. eigenvalues --   -1.59758  -1.39312  -1.19238  -1.09206  -1.08637
 Alpha  occ. eigenvalues --   -1.04640  -1.04358  -0.96850  -0.95478  -0.87890
 Alpha  occ. eigenvalues --   -0.86025  -0.82314  -0.80450  -0.78959  -0.77361
 Alpha  occ. eigenvalues --   -0.71952  -0.71080  -0.70377  -0.65834  -0.64889
 Alpha  occ. eigenvalues --   -0.64658  -0.62045  -0.61699  -0.60272  -0.58435
 Alpha  occ. eigenvalues --   -0.56122  -0.55190  -0.53568  -0.53274  -0.52962
 Alpha  occ. eigenvalues --   -0.52653  -0.50756  -0.48790  -0.48709  -0.48652
 Alpha  occ. eigenvalues --   -0.47434  -0.46513  -0.46399  -0.44723  -0.44594
 Alpha  occ. eigenvalues --   -0.37214  -0.36240
 Alpha virt. eigenvalues --    0.05163   0.11394   0.16654   0.20040   0.22340
 Alpha virt. eigenvalues --    0.23815   0.25068   0.26015   0.26095   0.27289
 Alpha virt. eigenvalues --    0.28859   0.29560   0.30915   0.31621   0.32224

 Mulliken charges:
               1
     1  C   -0.175729
     2  C   -0.223828
     3  C   -0.172347
     4  C    0.158692
     5  C   -0.171370
     6  C   -0.218774
     7  H    0.228648
     8  H    0.232665
     9  H    0.275406
    10  H    0.275037
    11  H    0.222985
    12  N    0.488003
    13  O   -0.460816
    14  O   -0.460736
    15  C   -0.298944
    16  C   -0.300266
    17  C   -0.476135
    18  H    0.150541
    19  H    0.150686
    20  H    0.152693
    21  H    0.152910
    22  H    0.155801
    23  H    0.155734
    24  H    0.161957
    25  C   -0.299780
    26  C   -0.299543
    27  C   -0.483472
    28  H    0.150330
    29  H    0.151571
    30  H    0.153788
    31  H    0.155400
    32  H    0.162545
    33  H    0.151727
    34  H    0.154622
 Sum of Mulliken charges =  -0.00000

 Dipole moment (field-independent basis, Debye):
    X=              4.6616    Y=              2.8762    Z=             -0.1731  Tot=              5.4802
 Quadrupole moment (field-independent basis, Debye-Ang):
   XX=           -130.1383   YY=            -92.2485   ZZ=            -94.6570
   XY=            -15.5044   XZ=              1.1063   YZ=              0.1465

 Normal termination of Gaussian 16 at Wed May  5 17:30:11 2021.
