 Gaussian 16, Revision A.03,
 Gaussian 16:  EM64L-G16RevA.03 25-Dec-2016

 -------------
 #p 6-31g* mp2
 -------------

 ------------------------------------------------------
 Input file generated by CHIRIPA (05-May-2021 14:51:08)
 ------------------------------------------------------
 Symbolic Z-matrix:
 Charge =  0 Multiplicity = 1

                         Standard orientation:
 ---------------------------------------------------------------------
 Center     Atomic      Atomic             Coordinates (Angstroms)
 Number     Number       Type             X           Y           Z
 ---------------------------------------------------------------------
      1          6           0       -3.619961    0.953029    0.357001
      2          6           0       -3.286910    2.108040   -0.587992
      3          6           0       -3.380839    3.474191    0.092157
      4          1           0       -4.632889    1.095886    0.757643
      5          1           0       -2.936563    0.983307    1.216911
      6          1           0       -3.969835    2.074771   -1.446551
      7          1           0       -2.274730    1.962317   -0.986580
      8          1           0       -2.687477    3.532189    0.937430
      9          1           0       -4.392213    3.645283    0.474846
     10          1           0       -3.138803    4.285471   -0.601459
     11          6           0       -3.530440   -0.419184   -0.308389
     12          6           0       -3.863490   -1.574194    0.636604
     13          6           0       -3.769562   -2.940345   -0.043545
     14          1           0       -4.213837   -0.449461   -1.168300
     15          1           0       -2.517512   -0.562040   -0.709032
     16          1           0       -4.875670   -1.428471    1.035192
     17          1           0       -3.180566   -1.540926    1.495163
     18          1           0       -2.758187   -3.111437   -0.426234
     19          1           0       -4.462924   -2.998344   -0.888818
     20          1           0       -4.011597   -3.751625    0.650071
     21          6           0        3.050205   -0.738812   -0.316081
     22          6           0        1.646026   -0.502636    0.241130
     23          6           0        0.606793   -1.454363   -0.352170
     24          1           0        3.028184   -0.625067   -1.408565
     25          1           0        3.346599   -1.777791   -0.115908
     26          1           0        1.352921    0.535983    0.041188
     27          1           0        1.671431   -0.616767    1.332434
     28          1           0        0.872391   -2.495176   -0.140586
     29          1           0        0.552070   -1.335876   -1.439169
     30          1           0       -0.389825   -1.268032    0.060010
     31          6           0        4.100196    0.204966    0.267469
     32          6           0        5.504375   -0.031210   -0.289742
     33          6           0        6.543607    0.920517    0.303558
     34          1           0        3.803802    1.243945    0.067297
     35          1           0        4.122217    0.091222    1.359953
     36          1           0        5.478969    0.082922   -1.381046
     37          1           0        5.797480   -1.069828   -0.089800
     38          1           0        6.598330    0.802030    1.390557
     39          1           0        6.278010    1.961331    0.091974
     40          1           0        7.540225    0.734187   -0.108622
 ---------------------------------------------------------------------

 SCF Done:  E(RHF) =  -470.733231582     A.U. after   11 cycles
 E2 =    -0.1582894478D+01 EUMP2 =    -0.47231612605965D+03

 The electronic state is 1-A.
 Alpha  occ. eigenvalues --  -11.21686 -11.21632 -11.21590 -11.21576 -11.21455
 Alpha  occ. eigenvalues --  -11.21393 -11.21371 -11.21294 -11.21158 -11.21095
 Alpha  occ. eigenvalues --  -11.21064 -11.21018  -1.08485  -1.08405  -1.03593
 Alpha  occ. eigenvalues --   -1.03503  -0.96043  -0.95949  -0.87068  -0.86961
 Alpha  occ. eigenvalues --   -0.79664  -0.79559  -0.78296  -0.78215  -0.65125
 Alpha  occ. eigenvalues --   -0.65066  -0.60983  -0.60939  -0.59420  -0.59289
 Alpha  occ. eigenvalues --   -0.57658  -0.57552  -0.55353  -0.55212  -0.52764
 Alpha  occ. eigenvalues --   -0.52646  -0.52478  -0.52352  -0.50000  -0.49868
 Alpha  occ. eigenvalues --   -0.47984  -0.47870  -0.46690  -0.46596  -0.45836
 Alpha  occ. eigenvalues --   -0.45765  -0.45749  -0.45683  -0.43788  -0.43751
 Alpha virt. eigenvalues --    0.20499   0.23013   0.23941   0.24718   0.26289
 Alpha virt. eigenvalues --    0.26643   0.27136   0.27457   0.27936   0.29211
 Alpha virt. eigenvalues --    0.30495   0.31394   0.31695   0.31762   0.32114

 Mulliken charges:
               1
     1  C   -0.298249
     2  C   -0.299587
     3  C   -0.475726
     4  H    0.149700
     5  H    0.149178
     6  H    0.151958
     7  H    0.151783
     8  H    0.155203
     9  H    0.155207
    10  H    0.160093
    11  C   -0.304861
    12  C   -0.299951
    13  C   -0.477325
    14  H    0.149720
    15  H    0.155672
    16  H    0.152036
    17  H    0.151425
    18  H    0.157535
    19  H    0.155031
    20  H    0.159966
    21  C   -0.298582
    22  C   -0.299598
    23  C   -0.482967
    24  H    0.149861
    25  H    0.149791
    26  H    0.151784
    27  H    0.152103
    28  H    0.155852
    29  H    0.155534
    30  H    0.166954
    31  C   -0.298323
    32  C   -0.299694
    33  C   -0.475742
    34  H    0.149607
    35  H    0.149720
    36  H    0.152034
    37  H    0.152013
    38  H    0.155222
    39  H    0.155246
    40  H    0.160377
 Sum of Mulliken charges =  -0.00000

 Dipole moment (field-independent basis, Debye):
    X=              0.0345    Y=             -0.0099    Z=             -0.0090  Tot=              0.0371
 Quadrupole moment (field-independent basis, Debye-Ang):
   XX=            -84.5526   YY=            -85.8438   ZZ=            -84.3871
   XY=             -0.7070   XZ=              0.1540   YZ=             -1.1000

 Normal termination of Gaussian 16 at Wed May  5 21:18:20 2021.
