 Gaussian 16, Revision A.03,
 Gaussian 16:  EM64L-G16RevA.03 25-Dec-2016

 -------------
 #p 6-31g* mp2
 -------------

 ------------------------------------------------------
 Input file generated by CHIRIPA (05-May-2021 14:53:16)
 ------------------------------------------------------
 Symbolic Z-matrix:
 Charge =  0 Multiplicity = 1

                         Standard orientation:
 ---------------------------------------------------------------------
 Center     Atomic      Atomic             Coordinates (Angstroms)
 Number     Number       Type             X           Y           Z
 ---------------------------------------------------------------------
      1          6           0        3.886512    0.056646   -0.307300
      2          6           0        4.917158    1.177167   -0.165220
      3          6           0        5.485245    1.631835   -1.509968
      4          1           0        4.351190   -0.797658   -0.818362
      5          1           0        3.068033    0.400692   -0.954694
      6          1           0        5.732769    0.831593    0.482834
      7          1           0        4.450027    2.028831    0.345734
      8          1           0        4.686205    2.002253   -2.160296
      9          1           0        5.976235    0.798213   -2.022418
     10          1           0        6.219980    2.433346   -1.385052
     11          6           0        3.309467   -0.408648    1.028457
     12          6           0        2.278822   -1.529170    0.886377
     13          6           0        1.710734   -1.983837    2.231125
     14          1           0        4.127947   -0.752695    1.675851
     15          1           0        2.844790    0.445656    1.539519
     16          1           0        2.745952   -2.380833    0.375423
     17          1           0        1.463211   -1.183596    0.238323
     18          1           0        1.219745   -1.150215    2.743575
     19          1           0        2.509774   -2.354255    2.881453
     20          1           0        0.976000   -2.785349    2.106209
     21          6           0       -3.804772    2.103836    0.947820
     22          6           0       -2.433965    2.071257    0.671513
     23          6           0       -1.872440    0.986823   -0.009105
     24          6           0       -2.714849   -0.052597   -0.400568
     25          6           0       -4.084297   -0.049261   -0.140009
     26          6           0       -4.624119    1.045340    0.541893
     27          1           0       -4.232548    2.950199    1.477039
     28          1           0       -1.795238    2.891894    0.985562
     29          1           0       -0.814452    0.935904   -0.236013
     30          1           0       -4.695601   -0.882113   -0.465712
     31          1           0       -5.689046    1.067948    0.755113
     32          7           0       -2.131875   -1.206020   -1.121787
     33          8           0       -2.895492   -2.109255   -1.455993
     34          8           0       -0.922363   -1.184998   -1.339217
 ---------------------------------------------------------------------

 SCF Done:  E(RHF) =  -669.536047233     A.U. after   15 cycles
 E2 =    -0.2091373617D+01 EUMP2 =    -0.67162742084998D+03

 The electronic state is 1-A.
 Alpha  occ. eigenvalues --  -20.60942 -20.60934 -15.85972 -11.31293 -11.27865
 Alpha  occ. eigenvalues --  -11.27852 -11.27593 -11.26867 -11.26856 -11.21379
 Alpha  occ. eigenvalues --  -11.21022 -11.20959 -11.20869 -11.20792 -11.20548
 Alpha  occ. eigenvalues --   -1.59999  -1.39556  -1.19463  -1.08866  -1.08018
 Alpha  occ. eigenvalues --   -1.04861  -1.03100  -0.95709  -0.95588  -0.86607
 Alpha  occ. eigenvalues --   -0.86261  -0.82545  -0.79159  -0.77818  -0.77572
 Alpha  occ. eigenvalues --   -0.72197  -0.71311  -0.70573  -0.65123  -0.64871
 Alpha  occ. eigenvalues --   -0.64656  -0.62212  -0.60504  -0.58947  -0.57168
 Alpha  occ. eigenvalues --   -0.55364  -0.54902  -0.53190  -0.52954  -0.52275
 Alpha  occ. eigenvalues --   -0.52003  -0.49559  -0.48966  -0.48947  -0.47471
 Alpha  occ. eigenvalues --   -0.46208  -0.45379  -0.45334  -0.44798  -0.43365
 Alpha  occ. eigenvalues --   -0.37439  -0.36461
 Alpha virt. eigenvalues --    0.04903   0.11182   0.16383   0.20722   0.22885
 Alpha virt. eigenvalues --    0.24504   0.26173   0.27474   0.27578   0.28297
 Alpha virt. eigenvalues --    0.29023   0.30839   0.31624   0.32036   0.32380

 Mulliken charges:
               1
     1  C   -0.297926
     2  C   -0.298889
     3  C   -0.475291
     4  H    0.152141
     5  H    0.150402
     6  H    0.151582
     7  H    0.147729
     8  H    0.154692
     9  H    0.156483
    10  H    0.158551
    11  C   -0.297568
    12  C   -0.310475
    13  C   -0.475228
    14  H    0.147765
    15  H    0.141462
    16  H    0.153798
    17  H    0.173041
    18  H    0.147861
    19  H    0.152367
    20  H    0.163800
    21  C   -0.170510
    22  C   -0.218754
    23  C   -0.170885
    24  C    0.158339
    25  C   -0.170784
    26  C   -0.218518
    27  H    0.226049
    28  H    0.223870
    29  H    0.275995
    30  H    0.275857
    31  H    0.223869
    32  N    0.490719
    33  O   -0.458831
    34  O   -0.462712
 Sum of Mulliken charges =  -0.00000

 Dipole moment (field-independent basis, Debye):
    X=             -2.2333    Y=              3.9683    Z=              2.4084  Tot=              5.1512
 Quadrupole moment (field-independent basis, Debye-Ang):
   XX=            -79.4874   YY=            -94.4813   ZZ=            -98.7615
   XY=             -9.9285   XZ=             -5.7647   YZ=             -1.0423

 Normal termination of Gaussian 16 at Wed May  5 20:21:48 2021.
