 Gaussian 16, Revision A.03,
 Gaussian 16:  EM64L-G16RevA.03 25-Dec-2016

 -------------
 #p 6-31g* mp2
 -------------

 ------------------------------------------------------
 Input file generated by CHIRIPA (05-May-2021 14:55:25)
 ------------------------------------------------------
 Symbolic Z-matrix:
 Charge =  0 Multiplicity = 1

                         Standard orientation:
 ---------------------------------------------------------------------
 Center     Atomic      Atomic             Coordinates (Angstroms)
 Number     Number       Type             X           Y           Z
 ---------------------------------------------------------------------
      1          6           0       -3.337120   -2.473295   -0.057755
      2          6           0       -2.288071   -1.745799   -0.629390
      3          6           0       -2.321453   -0.348290   -0.649453
      4          6           0       -3.424198    0.292186   -0.086396
      5          6           0       -4.484836   -0.404603    0.490511
      6          6           0       -4.430227   -1.801560    0.499389
      7          1           0       -3.302943   -3.558699   -0.046514
      8          1           0       -1.437886   -2.264815   -1.062812
      9          1           0       -1.522942    0.239649   -1.085489
     10          1           0       -5.319034    0.140835    0.914808
     11          1           0       -5.246360   -2.363950    0.944010
     12          7           0       -3.470774    1.771374   -0.101716
     13          8           0       -4.453529    2.311945    0.400889
     14          8           0       -2.523643    2.362181   -0.616037
     15          6           0        5.049319   -0.225305   -0.208142
     16          6           0        6.217330    0.515820    0.443373
     17          6           0        7.563349    0.178603   -0.198740
     18          1           0        5.227630   -1.307364   -0.142583
     19          1           0        5.018348    0.022105   -1.278293
     20          1           0        6.245247    0.268167    1.512253
     21          1           0        6.036125    1.596235    0.376427
     22          1           0        7.560052    0.442117   -1.261355
     23          1           0        7.770363   -0.893498   -0.119075
     24          1           0        8.384350    0.719324    0.282342
     25          6           0        3.696976    0.101406    0.422853
     26          6           0        2.528966   -0.639718   -0.228663
     27          6           0        1.182946   -0.302502    0.413451
     28          1           0        3.727947   -0.146003    1.493004
     29          1           0        3.518664    1.183466    0.357295
     30          1           0        2.710170   -1.720135   -0.161716
     31          1           0        2.501048   -0.392066   -1.297542
     32          1           0        0.975932    0.769599    0.333786
     33          1           0        1.186243   -0.566016    1.476065
     34          1           0        0.361945   -0.843223   -0.067631
 ---------------------------------------------------------------------

 SCF Done:  E(RHF) =  -669.533950217     A.U. after   15 cycles
 E2 =    -0.2092488740D+01 EUMP2 =    -0.67162643895697D+03

 The electronic state is 1-A.
 Alpha  occ. eigenvalues --  -20.60744 -20.60739 -15.85797 -11.31142 -11.27736
 Alpha  occ. eigenvalues --  -11.27693 -11.27487 -11.26742 -11.26730 -11.21954
 Alpha  occ. eigenvalues --  -11.21693 -11.21583 -11.21512 -11.21437 -11.21149
 Alpha  occ. eigenvalues --   -1.59818  -1.39372  -1.19338  -1.08732  -1.08631
 Alpha  occ. eigenvalues --   -1.04764  -1.03756  -0.96222  -0.95563  -0.87245
 Alpha  occ. eigenvalues --   -0.86139  -0.82417  -0.79834  -0.78429  -0.77453
 Alpha  occ. eigenvalues --   -0.72019  -0.71140  -0.70457  -0.65258  -0.65008
 Alpha  occ. eigenvalues --   -0.64757  -0.62223  -0.61139  -0.59560  -0.57819
 Alpha  occ. eigenvalues --   -0.55489  -0.55235  -0.53354  -0.52875  -0.52660
 Alpha  occ. eigenvalues --   -0.52556  -0.50119  -0.48775  -0.48771  -0.48138
 Alpha  occ. eigenvalues --   -0.46842  -0.45972  -0.45885  -0.44782  -0.44023
 Alpha  occ. eigenvalues --   -0.37321  -0.36266
 Alpha virt. eigenvalues --    0.05069   0.11280   0.16442   0.20707   0.22820
 Alpha virt. eigenvalues --    0.24092   0.26422   0.26688   0.27204   0.28002
 Alpha virt. eigenvalues --    0.29221   0.29931   0.31267   0.31770   0.32363

 Mulliken charges:
               1
     1  C   -0.171288
     2  C   -0.219634
     3  C   -0.166410
     4  C    0.155409
     5  C   -0.170914
     6  C   -0.219032
     7  H    0.225541
     8  H    0.223307
     9  H    0.279131
    10  H    0.275489
    11  H    0.223284
    12  N    0.488427
    13  O   -0.460524
    14  O   -0.460987
    15  C   -0.298445
    16  C   -0.300002
    17  C   -0.475833
    18  H    0.148576
    19  H    0.149935
    20  H    0.152094
    21  H    0.153576
    22  H    0.155491
    23  H    0.154609
    24  H    0.160993
    25  C   -0.299254
    26  C   -0.299844
    27  C   -0.482410
    28  H    0.150172
    29  H    0.153499
    30  H    0.149331
    31  H    0.151163
    32  H    0.165171
    33  H    0.158454
    34  H    0.150922
 Sum of Mulliken charges =  -0.00000

 Dipole moment (field-independent basis, Debye):
    X=              0.2173    Y=             -5.1381    Z=              0.1046  Tot=              5.1437
 Quadrupole moment (field-independent basis, Debye-Ang):
   XX=            -92.9737   YY=            -97.9123   ZZ=            -94.0806
   XY=             18.4740   XZ=             -2.0951   YZ=             -0.1800

 Normal termination of Gaussian 16 at Wed May  5 19:10:53 2021.
