 Gaussian 16, Revision A.03,
 Gaussian 16:  EM64L-G16RevA.03 25-Dec-2016

 -------------
 #p 6-31g* mp2
 -------------

 ------------------------------------------------------
 Input file generated by CHIRIPA (05-May-2021 14:55:19)
 ------------------------------------------------------
 Symbolic Z-matrix:
 Charge =  0 Multiplicity = 1

                         Standard orientation:
 ---------------------------------------------------------------------
 Center     Atomic      Atomic             Coordinates (Angstroms)
 Number     Number       Type             X           Y           Z
 ---------------------------------------------------------------------
      1          6           0        5.443655   -0.473724    0.423737
      2          6           0        4.567599   -0.191241    1.476946
      3          6           0        3.214981    0.059345    1.227590
      4          6           0        2.770395    0.019155   -0.093023
      5          6           0        3.618482   -0.259370   -1.163754
      6          6           0        4.967141   -0.506828   -0.890934
      7          1           0        6.492864   -0.667171    0.626556
      8          1           0        4.934875   -0.164866    2.498933
      9          1           0        2.514928    0.280610    2.024073
     10          1           0        3.222952   -0.278638   -2.172021
     11          1           0        5.645209   -0.725938   -1.710848
     12          7           0        1.340535    0.282784   -0.369425
     13          8           0        0.973685    0.241446   -1.541752
     14          8           0        0.613734    0.525761    0.591491
     15          6           0       -3.676978   -0.686433   -0.137788
     16          6           0       -4.673923   -1.716441    0.394348
     17          6           0       -4.318788   -3.147251   -0.011182
     18          1           0       -3.634327   -0.758726   -1.233188
     19          1           0       -2.672111   -0.934408    0.231189
     20          1           0       -5.676830   -1.465799    0.025604
     21          1           0       -4.714349   -1.641555    1.488594
     22          1           0       -3.329730   -3.421428    0.369862
     23          1           0       -4.297680   -3.244673   -1.101441
     24          1           0       -5.044518   -3.867201    0.379775
     25          6           0       -4.018520    0.748626    0.259308
     26          6           0       -3.021574    1.778634   -0.272828
     27          6           0       -3.376710    3.209445    0.132702
     28          1           0       -5.023386    0.996603   -0.109669
     29          1           0       -4.061171    0.820920    1.354708
     30          1           0       -2.981148    1.703750   -1.367074
     31          1           0       -2.018667    1.527993    0.095916
     32          1           0       -3.397817    3.306866    1.222961
     33          1           0       -4.365768    3.483621   -0.248342
     34          1           0       -2.650979    3.929395   -0.258255
 ---------------------------------------------------------------------

 SCF Done:  E(RHF) =  -669.536693227     A.U. after   15 cycles
 E2 =    -0.2091404399D+01 EUMP2 =    -0.67162809762521D+03

 The electronic state is 1-A.
 Alpha  occ. eigenvalues --  -20.61098 -20.61076 -15.86096 -11.31377 -11.27931
 Alpha  occ. eigenvalues --  -11.27926 -11.27659 -11.26926 -11.26917 -11.20555
 Alpha  occ. eigenvalues --  -11.20212 -11.19987 -11.19927 -11.19723 -11.19660
 Alpha  occ. eigenvalues --   -1.60128  -1.39687  -1.19537  -1.08949  -1.07039
 Alpha  occ. eigenvalues --   -1.04926  -1.02208  -0.95797  -0.94722  -0.86328
 Alpha  occ. eigenvalues --   -0.85747  -0.82634  -0.78268  -0.77692  -0.76779
 Alpha  occ. eigenvalues --   -0.72310  -0.71435  -0.70645  -0.65193  -0.64928
 Alpha  occ. eigenvalues --   -0.63672  -0.62272  -0.59609  -0.58102  -0.56302
 Alpha  occ. eigenvalues --   -0.55431  -0.54029  -0.53260  -0.53016  -0.51460
 Alpha  occ. eigenvalues --   -0.51138  -0.49168  -0.49062  -0.48661  -0.46573
 Alpha  occ. eigenvalues --   -0.45290  -0.45080  -0.44364  -0.44113  -0.42452
 Alpha  occ. eigenvalues --   -0.37513  -0.36524
 Alpha virt. eigenvalues --    0.04832   0.11132   0.16341   0.21270   0.24184
 Alpha virt. eigenvalues --    0.25552   0.27194   0.27973   0.28193   0.28934
 Alpha virt. eigenvalues --    0.29263   0.30858   0.32364   0.32635   0.33059

 Mulliken charges:
               1
     1  C   -0.170404
     2  C   -0.218544
     3  C   -0.170692
     4  C    0.157841
     5  C   -0.170533
     6  C   -0.218597
     7  H    0.226306
     8  H    0.224096
     9  H    0.275780
    10  H    0.276111
    11  H    0.224137
    12  N    0.489290
    13  O   -0.457242
    14  O   -0.460534
    15  C   -0.299368
    16  C   -0.298680
    17  C   -0.474530
    18  H    0.148994
    19  H    0.160061
    20  H    0.148512
    21  H    0.149055
    22  H    0.154351
    23  H    0.154292
    24  H    0.155850
    25  C   -0.296700
    26  C   -0.312207
    27  C   -0.474455
    28  H    0.142524
    29  H    0.145176
    30  H    0.149729
    31  H    0.183728
    32  H    0.150688
    33  H    0.148537
    34  H    0.157426
 Sum of Mulliken charges =  -0.00000

 Dipole moment (field-independent basis, Debye):
    X=              5.5423    Y=             -0.9714    Z=              0.9334  Tot=              5.7036
 Quadrupole moment (field-independent basis, Debye-Ang):
   XX=            -68.7031   YY=            -97.7035   ZZ=            -89.4967
   XY=             -2.4435   XZ=              1.9720   YZ=              0.5533

 Normal termination of Gaussian 16 at Wed May  5 23:45:34 2021.
