 Gaussian 16, Revision A.03,
 Gaussian 16:  EM64L-G16RevA.03 25-Dec-2016

 -------------
 #p 6-31g* mp2
 -------------

 ------------------------------------------------------
 Input file generated by CHIRIPA (05-May-2021 14:55:22)
 ------------------------------------------------------
 Symbolic Z-matrix:
 Charge =  0 Multiplicity = 1

                         Standard orientation:
 ---------------------------------------------------------------------
 Center     Atomic      Atomic             Coordinates (Angstroms)
 Number     Number       Type             X           Y           Z
 ---------------------------------------------------------------------
      1          6           0        5.395789    1.328712   -0.740269
      2          6           0        5.334239   -0.058532   -0.908456
      3          6           0        4.266457   -0.790973   -0.381275
      4          6           0        3.273051   -0.100862    0.311675
      5          6           0        3.306108    1.280528    0.495952
      6          6           0        4.383312    1.992644   -0.039837
      7          1           0        6.228928    1.889795   -1.153139
      8          1           0        6.119122   -0.576797   -1.451968
      9          1           0        4.193865   -1.865597   -0.496738
     10          1           0        2.508738    1.769269    1.042533
     11          1           0        4.428499    3.069926    0.092325
     12          7           0        2.137650   -0.865507    0.874334
     13          8           0        1.275087   -0.233970    1.480787
     14          8           0        2.131785   -2.081892    0.698240
     15          6           0       -3.933255   -0.468961   -0.663502
     16          6           0       -2.483784   -0.276479   -0.216324
     17          6           0       -1.503848   -1.157041   -0.992295
     18          1           0       -4.210887   -1.524851   -0.541187
     19          1           0       -4.010925   -0.247680   -1.736999
     20          1           0       -2.409142   -0.496720    0.856309
     21          1           0       -2.209632    0.779113   -0.339538
     22          1           0       -1.548900   -0.932641   -2.062909
     23          1           0       -1.749543   -2.215722   -0.860268
     24          1           0       -0.473544   -1.003442   -0.656529
     25          6           0       -4.924802    0.404551    0.103010
     26          6           0       -6.374273    0.212070   -0.344168
     27          6           0       -7.354209    1.092632    0.431803
     28          1           0       -4.847132    0.183270    1.176507
     29          1           0       -4.647170    1.460442   -0.019305
     30          1           0       -6.648425   -0.843522   -0.220954
     31          1           0       -6.448915    0.432310   -1.416801
     32          1           0       -7.108514    2.151312    0.299776
     33          1           0       -7.309157    0.868230    1.502417
     34          1           0       -8.384513    0.939032    0.096037
 ---------------------------------------------------------------------

 SCF Done:  E(RHF) =  -669.535918024     A.U. after   15 cycles
 E2 =    -0.2091324161D+01 EUMP2 =    -0.67162724218461D+03

 The electronic state is 1-A.
 Alpha  occ. eigenvalues --  -20.60940 -20.60935 -15.85958 -11.31286 -11.27850
 Alpha  occ. eigenvalues --  -11.27846 -11.27589 -11.26855 -11.26845 -11.21051
 Alpha  occ. eigenvalues --  -11.20693 -11.20617 -11.20523 -11.20427 -11.19776
 Alpha  occ. eigenvalues --   -1.60005  -1.39555  -1.19455  -1.08860  -1.07630
 Alpha  occ. eigenvalues --   -1.04850  -1.02670  -0.95702  -0.95130  -0.86250
 Alpha  occ. eigenvalues --   -0.86158  -0.82534  -0.78766  -0.77589  -0.77406
 Alpha  occ. eigenvalues --   -0.72175  -0.71348  -0.70563  -0.65108  -0.64852
 Alpha  occ. eigenvalues --   -0.64270  -0.62196  -0.60075  -0.58525  -0.56712
 Alpha  occ. eigenvalues --   -0.55354  -0.54438  -0.53187  -0.52941  -0.51811
 Alpha  occ. eigenvalues --   -0.51563  -0.49110  -0.48942  -0.48913  -0.47065
 Alpha  occ. eigenvalues --   -0.45817  -0.44970  -0.44947  -0.44859  -0.42926
 Alpha  occ. eigenvalues --   -0.37433  -0.36450
 Alpha virt. eigenvalues --    0.04903   0.11206   0.16392   0.21337   0.23610
 Alpha virt. eigenvalues --    0.25184   0.27258   0.27416   0.28119   0.28328
 Alpha virt. eigenvalues --    0.28868   0.30836   0.32211   0.32417   0.32559

 Mulliken charges:
               1
     1  C   -0.170487
     2  C   -0.218634
     3  C   -0.170686
     4  C    0.158647
     5  C   -0.170771
     6  C   -0.218635
     7  H    0.225995
     8  H    0.223851
     9  H    0.276026
    10  H    0.275982
    11  H    0.223821
    12  N    0.485749
    13  O   -0.458814
    14  O   -0.458240
    15  C   -0.298217
    16  C   -0.296944
    17  C   -0.476798
    18  H    0.148917
    19  H    0.145618
    20  H    0.160794
    21  H    0.146511
    22  H    0.144859
    23  H    0.155641
    24  H    0.170307
    25  C   -0.297506
    26  C   -0.298971
    27  C   -0.475235
    28  H    0.150402
    29  H    0.147437
    30  H    0.151626
    31  H    0.150274
    32  H    0.153876
    33  H    0.155160
    34  H    0.158443
 Sum of Mulliken charges =  -0.00000

 Dipole moment (field-independent basis, Debye):
    X=              4.2809    Y=              2.6486    Z=             -1.8575  Tot=              5.3658
 Quadrupole moment (field-independent basis, Debye-Ang):
   XX=            -69.8359   YY=            -91.6123   ZZ=            -96.0609
   XY=              7.4035   XZ=             -6.2941   YZ=              1.9130

 Normal termination of Gaussian 16 at Thu May  6 04:38:24 2021.
