 Gaussian 16, Revision A.03,
 Gaussian 16:  EM64L-G16RevA.03 25-Dec-2016

 -------------
 #p 6-31g* mp2
 -------------

 ------------------------------------------------------
 Input file generated by CHIRIPA (05-May-2021 14:53:15)
 ------------------------------------------------------
 Symbolic Z-matrix:
 Charge =  0 Multiplicity = 1

                         Standard orientation:
 ---------------------------------------------------------------------
 Center     Atomic      Atomic             Coordinates (Angstroms)
 Number     Number       Type             X           Y           Z
 ---------------------------------------------------------------------
      1          6           0        2.499619    0.872276   -0.478382
      2          6           0        2.916228    1.936682    0.537227
      3          6           0        2.273491    3.297069    0.265139
      4          1           0        2.769923    1.211836   -1.487629
      5          1           0        1.405547    0.771151   -0.465182
      6          1           0        4.009294    2.034786    0.523103
      7          1           0        2.645074    1.594464    1.544192
      8          1           0        1.181858    3.221132    0.299353
      9          1           0        2.553828    3.663955   -0.727537
     10          1           0        2.584972    4.043025    1.002967
     11          6           0        3.133981   -0.493145   -0.219654
     12          6           0        2.717372   -1.557551   -1.235263
     13          6           0        3.360109   -2.917937   -0.963175
     14          1           0        4.228053   -0.392019   -0.232854
     15          1           0        2.863678   -0.832705    0.789593
     16          1           0        2.988526   -1.215332   -2.242228
     17          1           0        1.624307   -1.655654   -1.221139
     18          1           0        3.079772   -3.284824    0.029501
     19          1           0        4.451743   -2.842000   -0.997389
     20          1           0        3.048629   -3.663893   -1.701003
     21          6           0       -0.629108   -1.057575    2.024558
     22          6           0       -0.460479    0.244006    1.540850
     23          6           0       -1.325241    0.758330    0.570178
     24          6           0       -2.352554   -0.060173    0.103304
     25          6           0       -2.546483   -1.360977    0.565464
     26          6           0       -1.669737   -1.854508    1.536182
     27          1           0        0.047315   -1.449039    2.778616
     28          1           0        0.346810    0.865178    1.918306
     29          1           0       -1.217565    1.762435    0.178264
     30          1           0       -3.360480   -1.956316    0.169991
     31          1           0       -1.803095   -2.865702    1.910007
     32          7           0       -3.274382    0.473312   -0.924326
     33          8           0       -4.171635   -0.267949   -1.319428
     34          8           0       -3.082204    1.622618   -1.315223
 ---------------------------------------------------------------------

 SCF Done:  E(RHF) =  -669.533959168     A.U. after   15 cycles
 E2 =    -0.2095092547D+01 EUMP2 =    -0.67162905171508D+03

 The electronic state is 1-A.
 Alpha  occ. eigenvalues --  -20.60828 -20.60822 -15.85881 -11.31289 -11.27837
 Alpha  occ. eigenvalues --  -11.27832 -11.27585 -11.26875 -11.26839 -11.22424
 Alpha  occ. eigenvalues --  -11.21977 -11.21915 -11.21858 -11.21816 -11.21474
 Alpha  occ. eigenvalues --   -1.59902  -1.39454  -1.19465  -1.09037  -1.08823
 Alpha  occ. eigenvalues --   -1.04884  -1.04121  -0.96553  -0.95675  -0.87577
 Alpha  occ. eigenvalues --   -0.86260  -0.82518  -0.80185  -0.78799  -0.77559
 Alpha  occ. eigenvalues --   -0.72098  -0.71226  -0.70563  -0.65911  -0.65107
 Alpha  occ. eigenvalues --   -0.64730  -0.62339  -0.61346  -0.59920  -0.58155
 Alpha  occ. eigenvalues --   -0.55909  -0.55347  -0.53294  -0.53200  -0.52964
 Alpha  occ. eigenvalues --   -0.52919  -0.50504  -0.48864  -0.48852  -0.48484
 Alpha  occ. eigenvalues --   -0.47245  -0.46336  -0.46252  -0.44848  -0.44341
 Alpha  occ. eigenvalues --   -0.37434  -0.36360
 Alpha virt. eigenvalues --    0.04948   0.11086   0.16338   0.18915   0.22840
 Alpha virt. eigenvalues --    0.23561   0.24900   0.25686   0.27520   0.28743
 Alpha virt. eigenvalues --    0.29145   0.29517   0.31145   0.31413   0.32120

 Mulliken charges:
               1
     1  C   -0.306955
     2  C   -0.304352
     3  C   -0.476716
     4  H    0.154307
     5  H    0.156407
     6  H    0.157748
     7  H    0.140712
     8  H    0.148343
     9  H    0.162790
    10  H    0.163182
    11  C   -0.295530
    12  C   -0.301343
    13  C   -0.475363
    14  H    0.150843
    15  H    0.140935
    16  H    0.154621
    17  H    0.155755
    18  H    0.151131
    19  H    0.155916
    20  H    0.162299
    21  C   -0.173426
    22  C   -0.220893
    23  C   -0.176630
    24  C    0.159451
    25  C   -0.171298
    26  C   -0.218496
    27  H    0.226212
    28  H    0.233212
    29  H    0.278890
    30  H    0.276004
    31  H    0.224087
    32  N    0.488122
    33  O   -0.460110
    34  O   -0.459856
 Sum of Mulliken charges =  -0.00000

 Dipole moment (field-independent basis, Debye):
    X=              3.2603    Y=             -1.8671    Z=              3.4973  Tot=              5.1329
 Quadrupole moment (field-independent basis, Debye-Ang):
   XX=           -108.7229   YY=            -91.7369   ZZ=            -94.3492
   XY=              7.6314   XZ=             -9.0747   YZ=             -0.6486

 Normal termination of Gaussian 16 at Wed May  5 23:30:55 2021.
