 Gaussian 16, Revision A.03,
 Gaussian 16:  EM64L-G16RevA.03 25-Dec-2016

 -------------
 #p 6-31g* mp2
 -------------

 ------------------------------------------------------
 Input file generated by CHIRIPA (05-May-2021 14:51:12)
 ------------------------------------------------------
 Symbolic Z-matrix:
 Charge =  0 Multiplicity = 1

                         Standard orientation:
 ---------------------------------------------------------------------
 Center     Atomic      Atomic             Coordinates (Angstroms)
 Number     Number       Type             X           Y           Z
 ---------------------------------------------------------------------
      1          6           0       -2.575584   -0.169299   -0.036663
      2          6           0       -4.008104    0.245100    0.301192
      3          6           0       -4.218664    1.757768    0.228436
      4          1           0       -1.883169    0.332323    0.653178
      5          1           0       -2.325971    0.188495   -1.045163
      6          1           0       -4.255414   -0.114569    1.308213
      7          1           0       -4.697203   -0.257717   -0.389412
      8          1           0       -3.998805    2.129374   -0.777632
      9          1           0       -3.554506    2.273335    0.929639
     10          1           0       -5.249504    2.031864    0.473588
     11          6           0       -2.349418   -1.678570    0.031745
     12          6           0       -0.916898   -2.092969   -0.306110
     13          6           0       -0.706338   -3.605637   -0.233354
     14          1           0       -2.599031   -2.036364    1.040244
     15          1           0       -3.041833   -2.180192   -0.658097
     16          1           0       -0.227799   -1.590152    0.384493
     17          1           0       -0.669588   -1.733300   -1.313132
     18          1           0       -1.370496   -4.121204   -0.934557
     19          1           0       -0.926197   -3.977243    0.772713
     20          1           0        0.324502   -3.879733   -0.478507
     21          6           0        2.538624    0.166847   -0.064289
     22          6           0        3.919184   -0.342710    0.350912
     23          6           0        4.056031   -1.859191    0.211802
     24          1           0        1.772505   -0.329485    0.546989
     25          1           0        2.345440   -0.125677   -1.105685
     26          1           0        4.110280   -0.048116    1.390774
     27          1           0        4.682118    0.155035   -0.261294
     28          1           0        3.891589   -2.167260   -0.825818
     29          1           0        3.316501   -2.371564    0.835637
     30          1           0        5.050578   -2.201932    0.513903
     31          6           0        2.386378    1.681022    0.069207
     32          6           0        1.005818    2.190579   -0.345994
     33          6           0        0.868972    3.707060   -0.206882
     34          1           0        2.579562    1.973546    1.110603
     35          1           0        3.152497    2.177355   -0.542071
     36          1           0        0.242884    1.692834    0.266214
     37          1           0        0.814722    1.895985   -1.385855
     38          1           0        1.608501    4.219433   -0.830719
     39          1           0        1.033413    4.015129    0.830737
     40          1           0       -0.125575    4.049800   -0.508984
 ---------------------------------------------------------------------

 SCF Done:  E(RHF) =  -470.732804450     A.U. after   11 cycles
 E2 =    -0.1584316578D+01 EUMP2 =    -0.47231712102749D+03

 The electronic state is 1-A.
 Alpha  occ. eigenvalues --  -11.21601 -11.21586 -11.21537 -11.21530 -11.21388
 Alpha  occ. eigenvalues --  -11.21361 -11.21328 -11.21300 -11.21077 -11.21074
 Alpha  occ. eigenvalues --  -11.21038 -11.21031  -1.08447  -1.08370  -1.03527
 Alpha  occ. eigenvalues --   -1.03487  -0.95971  -0.95947  -0.87006  -0.86944
 Alpha  occ. eigenvalues --   -0.79654  -0.79497  -0.78464  -0.77976  -0.65190
 Alpha  occ. eigenvalues --   -0.64907  -0.60987  -0.60842  -0.59393  -0.59263
 Alpha  occ. eigenvalues --   -0.57627  -0.57506  -0.55293  -0.55213  -0.52679
 Alpha  occ. eigenvalues --   -0.52627  -0.52480  -0.52292  -0.49999  -0.49822
 Alpha  occ. eigenvalues --   -0.48051  -0.47750  -0.46773  -0.46642  -0.46228
 Alpha  occ. eigenvalues --   -0.45833  -0.45570  -0.44953  -0.43767  -0.43740
 Alpha virt. eigenvalues --    0.20954   0.22621   0.23618   0.24263   0.25191
 Alpha virt. eigenvalues --    0.26051   0.26919   0.27719   0.28502   0.29604
 Alpha virt. eigenvalues --    0.31017   0.31466   0.31619   0.31834   0.32210

 Mulliken charges:
               1
     1  C   -0.301807
     2  C   -0.299380
     3  C   -0.475755
     4  H    0.152610
     5  H    0.150510
     6  H    0.151675
     7  H    0.152025
     8  H    0.155178
     9  H    0.154999
    10  H    0.160315
    11  C   -0.297869
    12  C   -0.304215
    13  C   -0.476264
    14  H    0.148857
    15  H    0.149506
    16  H    0.156916
    17  H    0.152198
    18  H    0.155028
    19  H    0.154526
    20  H    0.161175
    21  C   -0.303172
    22  C   -0.299217
    23  C   -0.476115
    24  H    0.155111
    25  H    0.149802
    26  H    0.151536
    27  H    0.151897
    28  H    0.155096
    29  H    0.155195
    30  H    0.160317
    31  C   -0.297877
    32  C   -0.304291
    33  C   -0.475752
    34  H    0.148752
    35  H    0.149385
    36  H    0.157335
    37  H    0.151585
    38  H    0.154948
    39  H    0.154585
    40  H    0.160651
 Sum of Mulliken charges =  -0.00000

 Dipole moment (field-independent basis, Debye):
    X=             -0.0086    Y=             -0.0055    Z=             -0.0114  Tot=              0.0153
 Quadrupole moment (field-independent basis, Debye-Ang):
   XX=            -84.8888   YY=            -87.2196   ZZ=            -82.8501
   XY=              0.6066   XZ=             -0.0506   YZ=             -0.0643

 Normal termination of Gaussian 16 at Wed May  5 18:18:10 2021.
