 Gaussian 16, Revision A.03,
 Gaussian 16:  EM64L-G16RevA.03 25-Dec-2016

 -------------
 #p 6-31g* mp2
 -------------

 ------------------------------------------------------
 Input file generated by CHIRIPA (05-May-2021 14:55:23)
 ------------------------------------------------------
 Symbolic Z-matrix:
 Charge =  0 Multiplicity = 1

                         Standard orientation:
 ---------------------------------------------------------------------
 Center     Atomic      Atomic             Coordinates (Angstroms)
 Number     Number       Type             X           Y           Z
 ---------------------------------------------------------------------
      1          6           0       -0.985708    0.418374   -0.453254
      2          6           0       -1.328111   -0.827050    0.083589
      3          6           0       -2.668855   -1.171490    0.279333
      4          6           0       -3.645867   -0.242212   -0.074475
      5          6           0       -3.336542    1.006496   -0.611445
      6          6           0       -1.989248    1.329566   -0.798449
      7          1           0        0.058358    0.677642   -0.601918
      8          1           0       -0.550862   -1.536676    0.352586
      9          1           0       -2.962009   -2.128719    0.693087
     10          1           0       -4.133601    1.692997   -0.869963
     11          1           0       -1.726276    2.297505   -1.215562
     12          7           0       -5.068720   -0.595543    0.128124
     13          8           0       -5.910676    0.240788   -0.191713
     14          8           0       -5.315053   -1.702125    0.602922
     15          6           0        3.884716    0.579677    0.620573
     16          6           0        2.978692    1.607818   -0.057683
     17          6           0        2.020407    2.287868    0.920590
     18          1           0        3.262221   -0.179400    1.113774
     19          1           0        4.460430    1.075634    1.414281
     20          1           0        2.405872    1.110356   -0.850793
     21          1           0        3.603417    2.364430   -0.549489
     22          1           0        2.577351    2.809431    1.705691
     23          1           0        1.373002    1.548231    1.402675
     24          1           0        1.382132    3.018935    0.414619
     25          6           0        4.848374   -0.108691   -0.344436
     26          6           0        5.754399   -1.136833    0.333820
     27          6           0        6.712684   -1.816882   -0.644452
     28          1           0        4.272659   -0.604649   -1.138144
     29          1           0        5.470869    0.650386   -0.837637
     30          1           0        5.129673   -1.893444    0.825626
     31          1           0        6.327218   -0.639371    1.126930
     32          1           0        7.360088   -1.077247   -1.126538
     33          1           0        6.155738   -2.338446   -1.429554
     34          1           0        7.350957   -2.547951   -0.138481
 ---------------------------------------------------------------------

 SCF Done:  E(RHF) =  -669.534999190     A.U. after   15 cycles
 E2 =    -0.2091972944D+01 EUMP2 =    -0.67162697213394D+03

 The electronic state is 1-A.
 Alpha  occ. eigenvalues --  -20.60724 -20.60719 -15.85779 -11.31133 -11.27715
 Alpha  occ. eigenvalues --  -11.27708 -11.27380 -11.26717 -11.26699 -11.22888
 Alpha  occ. eigenvalues --  -11.22423 -11.22310 -11.22273 -11.22219 -11.21655
 Alpha  occ. eigenvalues --   -1.59801  -1.39354  -1.19308  -1.09412  -1.08698
 Alpha  occ. eigenvalues --   -1.04713  -1.04501  -0.96930  -0.95532  -0.87931
 Alpha  occ. eigenvalues --   -0.86109  -0.82375  -0.80572  -0.79174  -0.77424
 Alpha  occ. eigenvalues --   -0.71996  -0.71124  -0.70479  -0.66048  -0.64958
 Alpha  occ. eigenvalues --   -0.64721  -0.62066  -0.61918  -0.60318  -0.58522
 Alpha  occ. eigenvalues --   -0.56362  -0.54971  -0.53618  -0.53327  -0.53033
 Alpha  occ. eigenvalues --   -0.52805  -0.50858  -0.48869  -0.48752  -0.48748
 Alpha  occ. eigenvalues --   -0.47641  -0.46710  -0.46629  -0.44763  -0.44732
 Alpha  occ. eigenvalues --   -0.37259  -0.36325
 Alpha virt. eigenvalues --    0.05098   0.11308   0.16531   0.19198   0.22615
 Alpha virt. eigenvalues --    0.24055   0.25416   0.25929   0.26733   0.27579
 Alpha virt. eigenvalues --    0.29326   0.29918   0.30519   0.31013   0.31758

 Mulliken charges:
               1
     1  C   -0.175951
     2  C   -0.223461
     3  C   -0.170298
     4  C    0.158056
     5  C   -0.170508
     6  C   -0.222937
     7  H    0.241605
     8  H    0.222724
     9  H    0.275343
    10  H    0.275416
    11  H    0.223379
    12  N    0.488014
    13  O   -0.460576
    14  O   -0.460665
    15  C   -0.297729
    16  C   -0.307622
    17  C   -0.482386
    18  H    0.146861
    19  H    0.154323
    20  H    0.144310
    21  H    0.158790
    22  H    0.163827
    23  H    0.156250
    24  H    0.158201
    25  C   -0.298956
    26  C   -0.300188
    27  C   -0.476216
    28  H    0.148363
    29  H    0.152105
    30  H    0.151652
    31  H    0.153825
    32  H    0.156439
    33  H    0.155494
    34  H    0.162518
 Sum of Mulliken charges =  -0.00000

 Dipole moment (field-independent basis, Debye):
    X=              5.2896    Y=              1.2979    Z=             -0.6540  Tot=              5.4857
 Quadrupole moment (field-independent basis, Debye-Ang):
   XX=           -130.5296   YY=            -91.1360   ZZ=            -95.0159
   XY=             -6.1212   XZ=              3.5564   YZ=             -1.9094

 Normal termination of Gaussian 16 at Thu May  6 07:54:28 2021.
