 Gaussian 16, Revision A.03,
 Gaussian 16:  EM64L-G16RevA.03 25-Dec-2016

 -------------
 #p 6-31g* mp2
 -------------

 ------------------------------------------------------
 Input file generated by CHIRIPA (05-May-2021 14:57:21)
 ------------------------------------------------------
 Symbolic Z-matrix:
 Charge =  0 Multiplicity = 1

                         Standard orientation:
 ---------------------------------------------------------------------
 Center     Atomic      Atomic             Coordinates (Angstroms)
 Number     Number       Type             X           Y           Z
 ---------------------------------------------------------------------
      1          6           0       -3.075552   -2.354535    0.705713
      2          6           0       -1.938788   -1.554392    0.860820
      3          6           0       -1.934972   -0.231156    0.409622
      4          6           0       -3.090368    0.261776   -0.194833
      5          6           0       -4.238600   -0.510425   -0.363824
      6          6           0       -4.219813   -1.830921    0.094963
      7          1           0       -3.069738   -3.381393    1.059162
      8          1           0       -1.048721   -1.958378    1.334763
      9          1           0       -1.068732    0.410348    0.516947
     10          1           0       -5.110912   -0.079686   -0.840221
     11          1           0       -5.104087   -2.450011   -0.026832
     12          7           0       -3.098293    1.661176   -0.676514
     13          8           0       -4.128821    2.071789   -1.205708
     14          8           0       -2.073826    2.320916   -0.515740
     15          6           0        2.208921    0.958078    2.263172
     16          6           0        3.159554    1.654504    1.509642
     17          6           0        3.654227    1.116015    0.318056
     18          6           0        3.174151   -0.126772   -0.092187
     19          6           0        2.227332   -0.844971    0.636517
     20          6           0        1.746658   -0.287241    1.824979
     21          1           0        1.830084    1.383863    3.187611
     22          1           0        3.520358    2.621824    1.847513
     23          1           0        4.390458    1.633691   -0.284764
     24          1           0        1.886680   -1.807253    0.274041
     25          1           0        1.008413   -0.830345    2.408140
     26          7           0        3.690429   -0.707032   -1.352011
     27          8           0        3.251425   -1.803608   -1.691764
     28          8           0        4.524315   -0.054274   -1.975853
 ---------------------------------------------------------------------

 SCF Done:  E(RHF) =  -868.337086510     A.U. after   16 cycles
 E2 =    -0.2600906301D+01 EUMP2 =    -0.87093799281166D+03

 The electronic state is 1-A.
 Alpha  occ. eigenvalues --  -20.61057 -20.61041 -20.61007 -20.60998 -15.86115
 Alpha  occ. eigenvalues --  -15.86063 -11.31610 -11.31475 -11.28336 -11.28159
 Alpha  occ. eigenvalues --  -11.28070 -11.28066 -11.27987 -11.27869 -11.27396
 Alpha  occ. eigenvalues --  -11.27216 -11.27142 -11.27067  -1.60123  -1.60079
 Alpha  occ. eigenvalues --   -1.39674  -1.39631  -1.19824  -1.19680  -1.09176
 Alpha  occ. eigenvalues --   -1.09069  -1.05302  -1.05084  -0.95985  -0.95885
 Alpha  occ. eigenvalues --   -0.86647  -0.86508  -0.82890  -0.82687  -0.77939
 Alpha  occ. eigenvalues --   -0.77693  -0.72332  -0.72282  -0.71445  -0.71402
 Alpha  occ. eigenvalues --   -0.70902  -0.70783  -0.65497  -0.65402  -0.65301
 Alpha  occ. eigenvalues --   -0.65091  -0.62790  -0.62274  -0.55725  -0.55602
 Alpha  occ. eigenvalues --   -0.53581  -0.53445  -0.53364  -0.53142  -0.49101
 Alpha  occ. eigenvalues --   -0.49077  -0.49046  -0.49029  -0.45052  -0.45026
 Alpha  occ. eigenvalues --   -0.37771  -0.37663  -0.36898  -0.36680
 Alpha virt. eigenvalues --    0.04644   0.04837   0.10718   0.10939   0.16024
 Alpha virt. eigenvalues --    0.16232   0.18808   0.22115   0.24801   0.27714
 Alpha virt. eigenvalues --    0.28111   0.28764   0.29883   0.31833   0.32097

 Mulliken charges:
               1
     1  C   -0.169430
     2  C   -0.222127
     3  C   -0.173983
     4  C    0.159174
     5  C   -0.169077
     6  C   -0.218755
     7  H    0.226696
     8  H    0.213455
     9  H    0.278753
    10  H    0.277021
    11  H    0.225081
    12  N    0.488186
    13  O   -0.459263
    14  O   -0.460597
    15  C   -0.168330
    16  C   -0.216334
    17  C   -0.167085
    18  C    0.160224
    19  C   -0.171953
    20  C   -0.228846
    21  H    0.229333
    22  H    0.227830
    23  H    0.279025
    24  H    0.272823
    25  H    0.218111
    26  N    0.488486
    27  O   -0.461086
    28  O   -0.457332
 Sum of Mulliken charges =  -0.00000

 Dipole moment (field-independent basis, Debye):
    X=             -1.6398    Y=             -2.6661    Z=              6.0269  Tot=              6.7912
 Quadrupole moment (field-independent basis, Debye-Ang):
   XX=           -109.4802   YY=           -105.3476   ZZ=           -107.1286
   XY=             26.1202   XZ=             10.5240   YZ=              0.5957

 Normal termination of Gaussian 16 at Thu May  6 00:09:20 2021.
