 Gaussian 16, Revision A.03,
 Gaussian 16:  EM64L-G16RevA.03 25-Dec-2016

 -------------
 #p 6-31g* mp2
 -------------

 ------------------------------------------------------
 Input file generated by CHIRIPA (05-May-2021 14:51:08)
 ------------------------------------------------------
 Symbolic Z-matrix:
 Charge =  0 Multiplicity = 1

                         Standard orientation:
 ---------------------------------------------------------------------
 Center     Atomic      Atomic             Coordinates (Angstroms)
 Number     Number       Type             X           Y           Z
 ---------------------------------------------------------------------
      1          6           0       -4.290712   -0.194228   -0.041548
      2          6           0       -3.928694   -1.619103   -0.461857
      3          6           0       -5.072138   -2.609535   -0.239650
      4          1           0       -4.577652   -0.193277    1.018928
      5          1           0       -5.175391    0.133237   -0.605023
      6          1           0       -3.044132   -1.943275    0.101240
      7          1           0       -3.642398   -1.616629   -1.521406
      8          1           0       -5.955708   -2.313055   -0.814110
      9          1           0       -5.354042   -2.641557    0.817755
     10          1           0       -4.791760   -3.621906   -0.546819
     11          6           0       -3.157735    0.807470   -0.257628
     12          6           0       -3.519753    2.232345    0.162681
     13          6           0       -2.376310    3.222777   -0.059526
     14          1           0       -2.273056    0.480005    0.305848
     15          1           0       -2.870795    0.806520   -1.318104
     16          1           0       -3.806049    2.229872    1.222230
     17          1           0       -4.404315    2.556518   -0.400416
     18          1           0       -2.094405    3.254799   -1.116931
     19          1           0       -1.492740    2.926297    0.514935
     20          1           0       -2.656687    4.235148    0.247644
     21          6           0        3.181859   -0.436487    0.671514
     22          6           0        1.772035   -0.485713    0.081635
     23          6           0        0.697939   -0.746290    1.138144
     24          1           0        3.391634   -1.385664    1.183378
     25          1           0        3.223353    0.348497    1.439284
     26          1           0        1.733588   -1.269442   -0.685769
     27          1           0        1.565662    0.463617   -0.429049
     28          1           0        0.707282    0.040630    1.899242
     29          1           0        0.876161   -1.702276    1.641063
     30          1           0       -0.302176   -0.777507    0.694685
     31          6           0        4.266588   -0.176755   -0.372338
     32          6           0        5.676413   -0.127529    0.217541
     33          6           0        6.750508    0.133048   -0.838968
     34          1           0        4.225095   -0.961741   -1.140110
     35          1           0        4.056813    0.772421   -0.884202
     36          1           0        5.882784   -1.076860    0.728225
     37          1           0        5.714859    0.656200    0.984943
     38          1           0        6.572286    1.089034   -1.341889
     39          1           0        6.741166   -0.653874   -1.600067
     40          1           0        7.750623    0.164264   -0.395509
 ---------------------------------------------------------------------

 SCF Done:  E(RHF) =  -470.733315742     A.U. after   11 cycles
 E2 =    -0.1582741756D+01 EUMP2 =    -0.47231605749795D+03

 The electronic state is 1-A.
 Alpha  occ. eigenvalues --  -11.21607 -11.21606 -11.21600 -11.21592 -11.21406
 Alpha  occ. eigenvalues --  -11.21387 -11.21346 -11.21323 -11.21090 -11.21069
 Alpha  occ. eigenvalues --  -11.21069 -11.21069  -1.08439  -1.08418  -1.03538
 Alpha  occ. eigenvalues --   -1.03522  -0.96005  -0.95960  -0.87024  -0.86977
 Alpha  occ. eigenvalues --   -0.79608  -0.79582  -0.78252  -0.78234  -0.65084
 Alpha  occ. eigenvalues --   -0.65047  -0.60959  -0.60894  -0.59382  -0.59335
 Alpha  occ. eigenvalues --   -0.57674  -0.57518  -0.55288  -0.55251  -0.52769
 Alpha  occ. eigenvalues --   -0.52643  -0.52452  -0.52333  -0.49946  -0.49897
 Alpha  occ. eigenvalues --   -0.47938  -0.47900  -0.46651  -0.46600  -0.45794
 Alpha  occ. eigenvalues --   -0.45768  -0.45711  -0.45687  -0.43793  -0.43708
 Alpha virt. eigenvalues --    0.21185   0.23070   0.23916   0.24165   0.25954
 Alpha virt. eigenvalues --    0.26611   0.27012   0.27526   0.27822   0.29062
 Alpha virt. eigenvalues --    0.30950   0.31561   0.31713   0.31870   0.31992

 Mulliken charges:
               1
     1  C   -0.297694
     2  C   -0.301815
     3  C   -0.475656
     4  H    0.149659
     5  H    0.149535
     6  H    0.153371
     7  H    0.151887
     8  H    0.155277
     9  H    0.155327
    10  H    0.160261
    11  C   -0.306939
    12  C   -0.298946
    13  C   -0.475958
    14  H    0.158208
    15  H    0.149227
    16  H    0.151946
    17  H    0.151886
    18  H    0.155036
    19  H    0.155309
    20  H    0.160180
    21  C   -0.298492
    22  C   -0.299168
    23  C   -0.484241
    24  H    0.149617
    25  H    0.149454
    26  H    0.152138
    27  H    0.152686
    28  H    0.154404
    29  H    0.155279
    30  H    0.168022
    31  C   -0.298282
    32  C   -0.299649
    33  C   -0.475713
    34  H    0.149542
    35  H    0.149807
    36  H    0.151908
    37  H    0.151938
    38  H    0.155230
    39  H    0.155176
    40  H    0.160245
 Sum of Mulliken charges =  -0.00000

 Dipole moment (field-independent basis, Debye):
    X=              0.0019    Y=             -0.0043    Z=             -0.0032  Tot=              0.0057
 Quadrupole moment (field-independent basis, Debye-Ang):
   XX=            -86.0128   YY=            -84.4665   ZZ=            -84.3125
   XY=             -0.9165   XZ=              0.9244   YZ=              0.1802

 Normal termination of Gaussian 16 at Wed May  5 22:54:28 2021.
