 Gaussian 16, Revision A.03,
 Gaussian 16:  EM64L-G16RevA.03 25-Dec-2016

 -------------
 #p 6-31g* mp2
 -------------

 ------------------------------------------------------
 Input file generated by CHIRIPA (05-May-2021 14:55:25)
 ------------------------------------------------------
 Symbolic Z-matrix:
 Charge =  0 Multiplicity = 1

                         Standard orientation:
 ---------------------------------------------------------------------
 Center     Atomic      Atomic             Coordinates (Angstroms)
 Number     Number       Type             X           Y           Z
 ---------------------------------------------------------------------
      1          6           0       -1.291334    0.084023    2.133673
      2          6           0       -0.824368   -0.475481    0.939764
      3          6           0       -1.693496   -0.680462   -0.135944
      4          6           0       -3.029342   -0.312681    0.017488
      5          6           0       -3.524764    0.246929    1.194214
      6          6           0       -2.637668    0.442810    2.256870
      7          1           0       -0.609195    0.239723    2.964240
      8          1           0        0.220700   -0.755074    0.841250
      9          1           0       -1.358610   -1.111705   -1.071518
     10          1           0       -4.571939    0.515590    1.262511
     11          1           0       -3.003110    0.877529    3.182892
     12          7           0       -3.958960   -0.524869   -1.114408
     13          8           0       -5.131285   -0.192368   -0.953985
     14          8           0       -3.497668   -1.019665   -2.140577
     15          6           0        3.510144    0.987851   -0.653826
     16          6           0        2.332619    1.766255   -0.066028
     17          6           0        2.001984    3.028797   -0.862560
     18          1           0        4.392212    1.641753   -0.690068
     19          1           0        3.279132    0.716718   -1.693305
     20          1           0        2.565213    2.034643    0.972473
     21          1           0        1.453303    1.110366   -0.031004
     22          1           0        1.744180    2.775787   -1.896061
     23          1           0        2.862409    3.705316   -0.886883
     24          1           0        1.157254    3.569872   -0.424921
     25          6           0        3.852749   -0.276913    0.131490
     26          6           0        5.030274   -1.055317   -0.456309
     27          6           0        5.360909   -2.317859    0.340223
     28          1           0        4.083761   -0.005779    1.170968
     29          1           0        2.970681   -0.930815    0.167730
     30          1           0        5.909592   -0.399428   -0.491333
     31          1           0        4.797681   -1.323705   -1.494810
     32          1           0        4.500485   -2.994378    0.364545
     33          1           0        5.618713   -2.064849    1.373724
     34          1           0        6.205640   -2.858934   -0.097417
 ---------------------------------------------------------------------

 SCF Done:  E(RHF) =  -669.535157143     A.U. after   15 cycles
 E2 =    -0.2092154174D+01 EUMP2 =    -0.67162731131681D+03

 The electronic state is 1-A.
 Alpha  occ. eigenvalues --  -20.60776 -20.60771 -15.85830 -11.31203 -11.27778
 Alpha  occ. eigenvalues --  -11.27774 -11.27509 -11.26786 -11.26758 -11.22255
 Alpha  occ. eigenvalues --  -11.22247 -11.22188 -11.22020 -11.21627 -11.21530
 Alpha  occ. eigenvalues --   -1.59851  -1.39404  -1.19380  -1.09123  -1.08767
 Alpha  occ. eigenvalues --   -1.04790  -1.04133  -0.96575  -0.95601  -0.87588
 Alpha  occ. eigenvalues --   -0.86184  -0.82441  -0.80217  -0.78975  -0.77479
 Alpha  occ. eigenvalues --   -0.72048  -0.71174  -0.70476  -0.65812  -0.65029
 Alpha  occ. eigenvalues --   -0.64762  -0.62164  -0.61503  -0.59941  -0.58196
 Alpha  occ. eigenvalues --   -0.55863  -0.55275  -0.53265  -0.53116  -0.52990
 Alpha  occ. eigenvalues --   -0.52879  -0.50513  -0.48816  -0.48802  -0.48513
 Alpha  occ. eigenvalues --   -0.47249  -0.46469  -0.46405  -0.44808  -0.44413
 Alpha  occ. eigenvalues --   -0.37339  -0.36357
 Alpha virt. eigenvalues --    0.05048   0.11173   0.16457   0.19611   0.22692
 Alpha virt. eigenvalues --    0.23807   0.24463   0.26329   0.27350   0.28293
 Alpha virt. eigenvalues --    0.29191   0.30855   0.31264   0.31427   0.31735

 Mulliken charges:
               1
     1  C   -0.172550
     2  C   -0.219445
     3  C   -0.173449
     4  C    0.158779
     5  C   -0.170633
     6  C   -0.218624
     7  H    0.226722
     8  H    0.229430
     9  H    0.275536
    10  H    0.275712
    11  H    0.223529
    12  N    0.488147
    13  O   -0.460388
    14  O   -0.460457
    15  C   -0.298720
    16  C   -0.305568
    17  C   -0.475398
    18  H    0.152776
    19  H    0.151997
    20  H    0.149150
    21  H    0.150421
    22  H    0.158195
    23  H    0.156482
    24  H    0.162061
    25  C   -0.300095
    26  C   -0.300027
    27  C   -0.476160
    28  H    0.149448
    29  H    0.141663
    30  H    0.154679
    31  H    0.154279
    32  H    0.154181
    33  H    0.155134
    34  H    0.163194
 Sum of Mulliken charges =  -0.00000

 Dipole moment (field-independent basis, Debye):
    X=              3.3740    Y=              0.7996    Z=              3.9518  Tot=              5.2574
 Quadrupole moment (field-independent basis, Debye-Ang):
   XX=           -111.1473   YY=            -95.6701   ZZ=            -93.3773
   XY=             -4.2773   XZ=            -14.5110   YZ=              0.6824

 Normal termination of Gaussian 16 at Thu May  6 14:22:37 2021.
