 Gaussian 16, Revision A.03,
 Gaussian 16:  EM64L-G16RevA.03 25-Dec-2016

 -------------
 #p 6-31g* mp2
 -------------

 ------------------------------------------------------
 Input file generated by CHIRIPA (05-May-2021 14:55:24)
 ------------------------------------------------------
 Symbolic Z-matrix:
 Charge =  0 Multiplicity = 1

                         Standard orientation:
 ---------------------------------------------------------------------
 Center     Atomic      Atomic             Coordinates (Angstroms)
 Number     Number       Type             X           Y           Z
 ---------------------------------------------------------------------
      1          6           0       -2.258004   -2.687030   -0.550386
      2          6           0       -3.522622   -2.223185   -0.173408
      3          6           0       -3.724783   -0.871146    0.119285
      4          6           0       -2.635203   -0.006798    0.024387
      5          6           0       -1.363226   -0.438492   -0.348446
      6          6           0       -1.184236   -1.794776   -0.636549
      7          1           0       -2.109961   -3.738976   -0.775974
      8          1           0       -4.358352   -2.913844   -0.105655
      9          1           0       -4.693212   -0.485189    0.413563
     10          1           0       -0.549384    0.273990   -0.407165
     11          1           0       -0.201007   -2.152189   -0.929060
     12          7           0       -2.836957    1.426793    0.331819
     13          8           0       -1.860778    2.168023    0.240767
     14          8           0       -3.967450    1.782065    0.658015
     15          6           0        2.825178    0.870260    0.157975
     16          6           0        3.123486    2.144174   -0.633316
     17          6           0        2.103801    3.253580   -0.373979
     18          1           0        1.818881    0.513010   -0.100252
     19          1           0        2.806476    1.108996    1.230379
     20          1           0        3.142989    1.902836   -1.703825
     21          1           0        4.129265    2.498327   -0.373318
     22          1           0        2.089064    3.522934    0.687074
     23          1           0        1.097183    2.924059   -0.650993
     24          1           0        2.336122    4.154977   -0.949628
     25          6           0        3.835816   -0.247999   -0.090695
     26          6           0        3.537509   -1.521913    0.700596
     27          6           0        4.557194   -2.631319    0.441259
     28          1           0        3.854519   -0.486735   -1.163098
     29          1           0        4.842115    0.109252    0.167532
     30          1           0        2.531729   -1.876066    0.440598
     31          1           0        3.518006   -1.280575    1.771106
     32          1           0        5.563812   -2.301798    0.718274
     33          1           0        4.571931   -2.900672   -0.619794
     34          1           0        4.324873   -3.532715    1.016908
 ---------------------------------------------------------------------

 SCF Done:  E(RHF) =  -669.535558661     A.U. after   15 cycles
 E2 =    -0.2092328757D+01 EUMP2 =    -0.67162788741731D+03

 The electronic state is 1-A.
 Alpha  occ. eigenvalues --  -20.60811 -20.60804 -15.85856 -11.31199 -11.27774
 Alpha  occ. eigenvalues --  -11.27759 -11.27518 -11.26789 -11.26779 -11.22128
 Alpha  occ. eigenvalues --  -11.21769 -11.21696 -11.21547 -11.21536 -11.20566
 Alpha  occ. eigenvalues --   -1.59878  -1.39433  -1.19376  -1.08775  -1.08719
 Alpha  occ. eigenvalues --   -1.04780  -1.03692  -0.96110  -0.95612  -0.87119
 Alpha  occ. eigenvalues --   -0.86179  -0.82446  -0.79774  -0.78533  -0.77482
 Alpha  occ. eigenvalues --   -0.72075  -0.71197  -0.70496  -0.65392  -0.65029
 Alpha  occ. eigenvalues --   -0.64789  -0.62135  -0.61088  -0.59531  -0.57714
 Alpha  occ. eigenvalues --   -0.55411  -0.55269  -0.53106  -0.52909  -0.52778
 Alpha  occ. eigenvalues --   -0.52487  -0.50058  -0.48830  -0.48826  -0.48047
 Alpha  occ. eigenvalues --   -0.46831  -0.46033  -0.45954  -0.44840  -0.43976
 Alpha  occ. eigenvalues --   -0.37357  -0.36376
 Alpha virt. eigenvalues --    0.05031   0.11259   0.16481   0.18813   0.22878
 Alpha virt. eigenvalues --    0.23227   0.24772   0.26804   0.27093   0.28072
 Alpha virt. eigenvalues --    0.29213   0.31010   0.31570   0.31644   0.32246

 Mulliken charges:
               1
     1  C   -0.170577
     2  C   -0.218950
     3  C   -0.169993
     4  C    0.159399
     5  C   -0.180698
     6  C   -0.223837
     7  H    0.225861
     8  H    0.223568
     9  H    0.275660
    10  H    0.288378
    11  H    0.225177
    12  N    0.489312
    13  O   -0.462774
    14  O   -0.459895
    15  C   -0.300105
    16  C   -0.300765
    17  C   -0.480999
    18  H    0.139577
    19  H    0.154724
    20  H    0.149380
    21  H    0.152188
    22  H    0.157929
    23  H    0.169669
    24  H    0.159877
    25  C   -0.298423
    26  C   -0.299164
    27  C   -0.475912
    28  H    0.147787
    29  H    0.153073
    30  H    0.142495
    31  H    0.155779
    32  H    0.158159
    33  H    0.153965
    34  H    0.160135
 Sum of Mulliken charges =  -0.00000

 Dipole moment (field-independent basis, Debye):
    X=              0.7344    Y=             -4.9209    Z=             -1.0129  Tot=              5.0775
 Quadrupole moment (field-independent basis, Debye-Ang):
   XX=            -93.5766   YY=            -95.4863   ZZ=            -94.8835
   XY=             15.3644   XZ=              2.5751   YZ=             -0.0452

 Normal termination of Gaussian 16 at Wed May  5 22:24:22 2021.
