 Gaussian 16, Revision A.03,
 Gaussian 16:  EM64L-G16RevA.03 25-Dec-2016

 -------------
 #p 6-31g* mp2
 -------------

 ------------------------------------------------------
 Input file generated by CHIRIPA (05-May-2021 14:51:12)
 ------------------------------------------------------
 Symbolic Z-matrix:
 Charge =  0 Multiplicity = 1

                         Standard orientation:
 ---------------------------------------------------------------------
 Center     Atomic      Atomic             Coordinates (Angstroms)
 Number     Number       Type             X           Y           Z
 ---------------------------------------------------------------------
      1          6           0       -3.152744    0.689103    0.142762
      2          6           0       -4.209553    1.723212   -0.246801
      3          6           0       -4.170068    2.970476    0.636697
      4          1           0       -3.300086    0.401270    1.192709
      5          1           0       -2.157687    1.151237    0.082036
      6          1           0       -5.202219    1.258866   -0.186693
      7          1           0       -4.059797    2.008475   -1.295998
      8          1           0       -3.192843    3.459457    0.569402
      9          1           0       -4.341756    2.705589    1.685010
     10          1           0       -4.933782    3.696433    0.340747
     11          6           0       -3.179655   -0.563456   -0.731364
     12          6           0       -2.122846   -1.597565   -0.341801
     13          6           0       -2.162331   -2.844829   -1.225299
     14          1           0       -4.174713   -1.025590   -0.670638
     15          1           0       -3.032313   -0.275623   -1.781310
     16          1           0       -2.272602   -1.882828    0.707396
     17          1           0       -1.130180   -1.133219   -0.401909
     18          1           0       -1.990643   -2.579942   -2.273611
     19          1           0       -3.139556   -3.333810   -1.158004
     20          1           0       -1.398617   -3.570786   -0.929348
     21          6           0        2.650906   -0.184013    0.844953
     22          6           0        1.872059   -1.488177    0.670201
     23          6           0        0.844985   -1.716548    1.779597
     24          1           0        3.158001   -0.194969    1.819469
     25          1           0        1.943791    0.656675    0.869985
     26          1           0        2.580536   -2.326029    0.644118
     27          1           0        1.366916   -1.474196   -0.304094
     28          1           0        0.115820   -0.900246    1.803515
     29          1           0        1.336337   -1.756918    2.757116
     30          1           0        0.299679   -2.654415    1.634997
     31          6           0        3.681492    0.058366   -0.256351
     32          6           0        4.460340    1.362529   -0.081600
     33          6           0        5.487414    1.590902   -1.190995
     34          1           0        4.388608   -0.782321   -0.281383
     35          1           0        3.174399    0.069322   -1.230868
     36          1           0        4.965483    1.348549    0.892696
     37          1           0        3.751864    2.200382   -0.055517
     38          1           0        4.996062    1.631272   -2.168514
     39          1           0        6.216578    0.774599   -1.214913
     40          1           0        6.032720    2.528768   -1.046395
 ---------------------------------------------------------------------

 SCF Done:  E(RHF) =  -470.732362473     A.U. after   11 cycles
 E2 =    -0.1583838506D+01 EUMP2 =    -0.47231620097930D+03

 The electronic state is 1-A.
 Alpha  occ. eigenvalues --  -11.21622 -11.21613 -11.21588 -11.21513 -11.21419
 Alpha  occ. eigenvalues --  -11.21414 -11.21354 -11.21342 -11.21089 -11.21082
 Alpha  occ. eigenvalues --  -11.21065 -11.20963  -1.08469  -1.08401  -1.03605
 Alpha  occ. eigenvalues --   -1.03449  -0.96026  -0.95926  -0.87034  -0.86951
 Alpha  occ. eigenvalues --   -0.79659  -0.79528  -0.78257  -0.78246  -0.65185
 Alpha  occ. eigenvalues --   -0.64969  -0.61136  -0.60770  -0.59508  -0.59183
 Alpha  occ. eigenvalues --   -0.57733  -0.57415  -0.55316  -0.55213  -0.52710
 Alpha  occ. eigenvalues --   -0.52615  -0.52450  -0.52342  -0.49942  -0.49925
 Alpha  occ. eigenvalues --   -0.47956  -0.47811  -0.46771  -0.46507  -0.45881
 Alpha  occ. eigenvalues --   -0.45791  -0.45632  -0.45584  -0.43796  -0.43750
 Alpha virt. eigenvalues --    0.20864   0.23234   0.23368   0.24758   0.25951
 Alpha virt. eigenvalues --    0.26179   0.26759   0.27590   0.27950   0.29317
 Alpha virt. eigenvalues --    0.30268   0.31255   0.31466   0.31938   0.32584

 Mulliken charges:
               1
     1  C   -0.298734
     2  C   -0.299510
     3  C   -0.475726
     4  H    0.149908
     5  H    0.148360
     6  H    0.152187
     7  H    0.151942
     8  H    0.154976
     9  H    0.155311
    10  H    0.160357
    11  C   -0.297959
    12  C   -0.304445
    13  C   -0.476895
    14  H    0.149306
    15  H    0.149013
    16  H    0.153633
    17  H    0.158604
    18  H    0.154717
    19  H    0.155199
    20  H    0.160479
    21  C   -0.298259
    22  C   -0.304168
    23  C   -0.476688
    24  H    0.150027
    25  H    0.148976
    26  H    0.152144
    27  H    0.153922
    28  H    0.157868
    29  H    0.154268
    30  H    0.161331
    31  C   -0.298269
    32  C   -0.299626
    33  C   -0.475700
    34  H    0.149678
    35  H    0.149304
    36  H    0.152065
    37  H    0.151772
    38  H    0.155088
    39  H    0.155251
    40  H    0.160294
 Sum of Mulliken charges =  -0.00000

 Dipole moment (field-independent basis, Debye):
    X=             -0.0088    Y=             -0.0079    Z=              0.0139  Tot=              0.0182
 Quadrupole moment (field-independent basis, Debye-Ang):
   XX=            -84.4982   YY=            -85.4068   ZZ=            -84.9465
   XY=             -0.1941   XZ=              0.5227   YZ=             -0.8922

 Normal termination of Gaussian 16 at Wed May  5 18:20:33 2021.
