 Gaussian 16, Revision A.03,
 Gaussian 16:  EM64L-G16RevA.03 25-Dec-2016

 -------------
 #p 6-31g* mp2
 -------------

 ------------------------------------------------------
 Input file generated by CHIRIPA (05-May-2021 14:53:18)
 ------------------------------------------------------
 Symbolic Z-matrix:
 Charge =  0 Multiplicity = 1

                         Standard orientation:
 ---------------------------------------------------------------------
 Center     Atomic      Atomic             Coordinates (Angstroms)
 Number     Number       Type             X           Y           Z
 ---------------------------------------------------------------------
      1          6           0       -4.353446    0.126731    0.134340
      2          6           0       -4.930888    1.420632   -0.440435
      3          6           0       -6.124266    1.942399    0.360440
      4          1           0       -5.141243   -0.638495    0.161726
      5          1           0       -4.049611    0.299958    1.176008
      6          1           0       -5.232269    1.245390   -1.481145
      7          1           0       -4.141575    2.182809   -0.466635
      8          1           0       -5.833985    2.145055    1.396426
      9          1           0       -6.930877    1.202309    0.376152
     10          1           0       -6.521387    2.867984   -0.067869
     11          6           0       -3.159818   -0.407325   -0.655448
     12          6           0       -2.582376   -1.701226   -0.080673
     13          6           0       -1.388998   -2.222994   -0.881548
     14          1           0       -3.463653   -0.580553   -1.697116
     15          1           0       -2.372021    0.357901   -0.682834
     16          1           0       -3.371689   -2.463404   -0.054474
     17          1           0       -2.280995   -1.525984    0.960036
     18          1           0       -0.582388   -1.482903   -0.897261
     19          1           0       -1.679279   -2.425649   -1.917535
     20          1           0       -0.991877   -3.148578   -0.453240
     21          6           0        4.368089    1.973216   -0.712282
     22          6           0        4.317422    0.740547   -1.371433
     23          6           0        3.526734   -0.299143   -0.873029
     24          6           0        2.796310   -0.070559    0.292098
     25          6           0        2.825930    1.146304    0.971551
     26          6           0        3.623494    2.171811    0.455048
     27          1           0        4.984986    2.775363   -1.106483
     28          1           0        4.894627    0.583474   -2.278190
     29          1           0        3.469102   -1.263384   -1.363270
     30          1           0        2.239400    1.272944    1.873416
     31          1           0        3.660913    3.128075    0.969055
     32          7           0        1.955605   -1.163725    0.829316
     33          8           0        1.321508   -0.937068    1.857511
     34          8           0        1.946674   -2.226506    0.212020
 ---------------------------------------------------------------------

 SCF Done:  E(RHF) =  -669.535541646     A.U. after   15 cycles
 E2 =    -0.2091662578D+01 EUMP2 =    -0.67162720422407D+03

 The electronic state is 1-A.
 Alpha  occ. eigenvalues --  -20.60902 -20.60883 -15.85913 -11.31272 -11.27839
 Alpha  occ. eigenvalues --  -11.27832 -11.27577 -11.26848 -11.26837 -11.21173
 Alpha  occ. eigenvalues --  -11.20778 -11.20723 -11.20623 -11.20464 -11.19711
 Alpha  occ. eigenvalues --   -1.59956  -1.39510  -1.19442  -1.08842  -1.07715
 Alpha  occ. eigenvalues --   -1.04840  -1.02736  -0.95683  -0.95179  -0.86242
 Alpha  occ. eigenvalues --   -0.86199  -0.82512  -0.78838  -0.77563  -0.77497
 Alpha  occ. eigenvalues --   -0.72144  -0.71297  -0.70548  -0.65095  -0.64843
 Alpha  occ. eigenvalues --   -0.64351  -0.62187  -0.60133  -0.58592  -0.56772
 Alpha  occ. eigenvalues --   -0.55345  -0.54490  -0.53170  -0.52932  -0.51837
 Alpha  occ. eigenvalues --   -0.51622  -0.49237  -0.48904  -0.48822  -0.47143
 Alpha  occ. eigenvalues --   -0.45937  -0.45130  -0.44995  -0.44693  -0.42962
 Alpha  occ. eigenvalues --   -0.37422  -0.36442
 Alpha virt. eigenvalues --    0.04949   0.11209   0.16428   0.21345   0.23506
 Alpha virt. eigenvalues --    0.25074   0.27248   0.27287   0.28149   0.28201
 Alpha virt. eigenvalues --    0.28788   0.30882   0.32046   0.32375   0.32549

 Mulliken charges:
               1
     1  C   -0.297887
     2  C   -0.298729
     3  C   -0.475262
     4  H    0.148895
     5  H    0.150491
     6  H    0.150617
     7  H    0.149614
     8  H    0.154842
     9  H    0.155044
    10  H    0.158032
    11  C   -0.296872
    12  C   -0.302818
    13  C   -0.467786
    14  H    0.146184
    15  H    0.145913
    16  H    0.147564
    17  H    0.161095
    18  H    0.149027
    19  H    0.144843
    20  H    0.173759
    21  C   -0.170608
    22  C   -0.218534
    23  C   -0.170874
    24  C    0.157391
    25  C   -0.171059
    26  C   -0.218556
    27  H    0.225950
    28  H    0.223863
    29  H    0.276231
    30  H    0.275601
    31  H    0.223721
    32  N    0.486972
    33  O   -0.460349
    34  O   -0.456313
 Sum of Mulliken charges =  -0.00000

 Dipole moment (field-independent basis, Debye):
    X=              3.2032    Y=              3.7349    Z=             -1.7903  Tot=              5.2359
 Quadrupole moment (field-independent basis, Debye-Ang):
   XX=            -79.5292   YY=            -93.7058   ZZ=            -93.4241
   XY=             10.7812   XZ=             -5.3800   YZ=              3.7888

 Normal termination of Gaussian 16 at Wed May  5 17:17:23 2021.
