 Gaussian 16, Revision A.03,
 Gaussian 16:  EM64L-G16RevA.03 25-Dec-2016

 -------------
 #p 6-31g* mp2
 -------------

 ------------------------------------------------------
 Input file generated by CHIRIPA (05-May-2021 14:55:22)
 ------------------------------------------------------
 Symbolic Z-matrix:
 Charge =  0 Multiplicity = 1

                         Standard orientation:
 ---------------------------------------------------------------------
 Center     Atomic      Atomic             Coordinates (Angstroms)
 Number     Number       Type             X           Y           Z
 ---------------------------------------------------------------------
      1          6           0        3.392534    2.200066    0.689729
      2          6           0        4.166086    1.046329    0.525324
      3          6           0        3.618293   -0.098070   -0.061892
      4          6           0        2.287660   -0.053545   -0.475078
      5          6           0        1.491295    1.080727   -0.325013
      6          6           0        2.059957    2.213559    0.264785
      7          1           0        3.826179    3.084570    1.146896
      8          1           0        5.201256    1.032975    0.854398
      9          1           0        4.194512   -1.004689   -0.201290
     10          1           0        0.462266    1.063748   -0.662989
     11          1           0        1.456834    3.108159    0.391194
     12          7           0        1.696690   -1.258947   -1.098104
     13          8           0        0.521970   -1.194147   -1.453731
     14          8           0        2.419398   -2.245715   -1.219009
     15          6           0       -2.386990   -0.559554    0.494001
     16          6           0       -1.980245   -1.008932    1.897782
     17          6           0       -0.645958   -1.755348    1.916134
     18          1           0       -2.447877   -1.438538   -0.162219
     19          1           0       -1.599312    0.085337    0.080391
     20          1           0       -2.769091   -1.651663    2.309163
     21          1           0       -1.920504   -0.128797    2.550784
     22          1           0        0.156922   -1.118741    1.530493
     23          1           0       -0.696487   -2.650259    1.287500
     24          1           0       -0.374426   -2.067423    2.929415
     25          6           0       -3.718761    0.188049    0.459331
     26          6           0       -4.125507    0.637427   -0.944450
     27          6           0       -5.459793    1.383843   -0.962802
     28          1           0       -4.506439   -0.456843    0.872941
     29          1           0       -3.657873    1.067034    1.115552
     30          1           0       -4.185247   -0.242707   -1.597451
     31          1           0       -3.336660    1.280159   -1.355830
     32          1           0       -5.409264    2.278755   -0.334167
     33          1           0       -6.262672    0.747236   -0.577161
     34          1           0       -5.731325    1.695918   -1.976083
 ---------------------------------------------------------------------

 SCF Done:  E(RHF) =  -669.534564560     A.U. after   15 cycles
 E2 =    -0.2094471899D+01 EUMP2 =    -0.67162903645916D+03

 The electronic state is 1-A.
 Alpha  occ. eigenvalues --  -20.60847 -20.60838 -15.85866 -11.31266 -11.27831
 Alpha  occ. eigenvalues --  -11.27823 -11.27572 -11.26853 -11.26841 -11.21282
 Alpha  occ. eigenvalues --  -11.21134 -11.20998 -11.20849 -11.20729 -11.20471
 Alpha  occ. eigenvalues --   -1.59905  -1.39461  -1.19443  -1.08831  -1.07985
 Alpha  occ. eigenvalues --   -1.04846  -1.03116  -0.95666  -0.95552  -0.86573
 Alpha  occ. eigenvalues --   -0.86246  -0.82498  -0.79198  -0.77909  -0.77394
 Alpha  occ. eigenvalues --   -0.72098  -0.71228  -0.70551  -0.65094  -0.64921
 Alpha  occ. eigenvalues --   -0.64583  -0.62200  -0.60528  -0.58913  -0.57157
 Alpha  occ. eigenvalues --   -0.55345  -0.54875  -0.53171  -0.52949  -0.52271
 Alpha  occ. eigenvalues --   -0.51953  -0.49502  -0.48894  -0.48869  -0.47514
 Alpha  occ. eigenvalues --   -0.46240  -0.45509  -0.45215  -0.44529  -0.43352
 Alpha  occ. eigenvalues --   -0.37397  -0.36433
 Alpha virt. eigenvalues --    0.04955   0.11101   0.16452   0.20741   0.23170
 Alpha virt. eigenvalues --    0.24734   0.25474   0.27555   0.27627   0.28097
 Alpha virt. eigenvalues --    0.29388   0.31239   0.31644   0.32105   0.32318

 Mulliken charges:
               1
     1  C   -0.170525
     2  C   -0.218424
     3  C   -0.170689
     4  C    0.154976
     5  C   -0.173895
     6  C   -0.219910
     7  H    0.226002
     8  H    0.223885
     9  H    0.276112
    10  H    0.282168
    11  H    0.223960
    12  N    0.491233
    13  O   -0.459589
    14  O   -0.459464
    15  C   -0.297922
    16  C   -0.300422
    17  C   -0.474651
    18  H    0.162890
    19  H    0.147048
    20  H    0.151096
    21  H    0.145028
    22  H    0.146957
    23  H    0.166904
    24  H    0.155200
    25  C   -0.298880
    26  C   -0.297610
    27  C   -0.475358
    28  H    0.149157
    29  H    0.143604
    30  H    0.156934
    31  H    0.146762
    32  H    0.152246
    33  H    0.155483
    34  H    0.159695
 Sum of Mulliken charges =  -0.00000

 Dipole moment (field-independent basis, Debye):
    X=              2.1942    Y=              4.0721    Z=              2.0331  Tot=              5.0527
 Quadrupole moment (field-independent basis, Debye-Ang):
   XX=            -82.3445   YY=            -93.8529   ZZ=            -98.0439
   XY=              8.8611   XZ=              4.8479   YZ=             -2.0094

 Normal termination of Gaussian 16 at Wed May  5 22:16:49 2021.
