 Gaussian 16, Revision A.03,
 Gaussian 16:  EM64L-G16RevA.03 25-Dec-2016

 -------------
 #p 6-31g* mp2
 -------------

 ------------------------------------------------------
 Input file generated by CHIRIPA (05-May-2021 14:51:13)
 ------------------------------------------------------
 Symbolic Z-matrix:
 Charge =  0 Multiplicity = 1

                         Standard orientation:
 ---------------------------------------------------------------------
 Center     Atomic      Atomic             Coordinates (Angstroms)
 Number     Number       Type             X           Y           Z
 ---------------------------------------------------------------------
      1          6           0        2.421712   -0.989044    0.306915
      2          6           0        1.590743   -2.123118   -0.294210
      3          6           0        1.889542   -3.478782    0.346641
      4          1           0        3.488712   -1.223713    0.191213
      5          1           0        2.228839   -0.935402    1.387339
      6          1           0        1.784077   -2.173712   -1.373413
      7          1           0        0.525599   -1.885632   -0.177235
      8          1           0        1.678818   -3.452011    1.420643
      9          1           0        2.944448   -3.741729    0.217669
     10          1           0        1.284588   -4.275119   -0.098036
     11          6           0        2.134260    0.372494   -0.323413
     12          6           0        2.965229    1.506568    0.277711
     13          6           0        2.666431    2.862232   -0.363140
     14          1           0        2.327134    0.318851   -1.403838
     15          1           0        1.067261    0.607163   -0.207711
     16          1           0        4.030374    1.269082    0.160736
     17          1           0        2.771895    1.557162    1.356914
     18          1           0        1.611525    3.125179   -0.234167
     19          1           0        2.877154    2.835461   -1.437142
     20          1           0        3.271385    3.658569    0.081537
     21          6           0       -2.290806    0.955309    0.413975
     22          6           0       -1.924932    2.192744   -0.406318
     23          6           0       -1.955013    3.479353    0.419228
     24          1           0       -3.291658    1.092254    0.845816
     25          1           0       -1.595045    0.865745    1.259724
     26          1           0       -2.620321    2.279172   -1.251055
     27          1           0       -0.924914    2.052756   -0.836411
     28          1           0       -1.248393    3.418537    1.253249
     29          1           0       -2.953434    3.646238    0.836250
     30          1           0       -1.690339    4.351467   -0.186763
     31          6           0       -2.265168   -0.338760   -0.397477
     32          6           0       -2.631039   -1.576193    0.422816
     33          6           0       -2.600959   -2.862803   -0.402729
     34          1           0       -2.960928   -0.249195   -1.243225
     35          1           0       -1.264315   -0.475703   -0.829317
     36          1           0       -3.631059   -1.436207    0.852910
     37          1           0       -1.935652   -1.662622    1.267553
     38          1           0       -1.602539   -3.029688   -0.819751
     39          1           0       -3.307580   -2.801986   -1.236750
     40          1           0       -2.865633   -3.734916    0.203262
 ---------------------------------------------------------------------

 SCF Done:  E(RHF) =  -470.732171369     A.U. after   11 cycles
 E2 =    -0.1586123125D+01 EUMP2 =    -0.47231829449367D+03

 The electronic state is 1-A.
 Alpha  occ. eigenvalues --  -11.21655 -11.21636 -11.21636 -11.21623 -11.21468
 Alpha  occ. eigenvalues --  -11.21437 -11.21409 -11.21358 -11.21114 -11.21113
 Alpha  occ. eigenvalues --  -11.21102 -11.21064  -1.08563  -1.08413  -1.03649
 Alpha  occ. eigenvalues --   -1.03508  -0.96072  -0.95972  -0.87075  -0.87001
 Alpha  occ. eigenvalues --   -0.79714  -0.79575  -0.78497  -0.78130  -0.65615
 Alpha  occ. eigenvalues --   -0.64666  -0.61425  -0.60611  -0.59446  -0.59289
 Alpha  occ. eigenvalues --   -0.57745  -0.57543  -0.55530  -0.55080  -0.52722
 Alpha  occ. eigenvalues --   -0.52701  -0.52490  -0.52406  -0.50070  -0.49864
 Alpha  occ. eigenvalues --   -0.48155  -0.47797  -0.46846  -0.46613  -0.46421
 Alpha  occ. eigenvalues --   -0.45804  -0.45782  -0.44949  -0.43845  -0.43800
 Alpha virt. eigenvalues --    0.19384   0.21180   0.23944   0.24953   0.25663
 Alpha virt. eigenvalues --    0.25999   0.26638   0.27617   0.29188   0.29900
 Alpha virt. eigenvalues --    0.30677   0.31393   0.31656   0.31841   0.32481

 Mulliken charges:
               1
     1  C   -0.297283
     2  C   -0.310855
     3  C   -0.475854
     4  H    0.150130
     5  H    0.148983
     6  H    0.151693
     7  H    0.163125
     8  H    0.155129
     9  H    0.155495
    10  H    0.161114
    11  C   -0.307853
    12  C   -0.299246
    13  C   -0.479873
    14  H    0.149540
    15  H    0.158506
    16  H    0.152382
    17  H    0.151585
    18  H    0.159288
    19  H    0.155248
    20  H    0.160652
    21  C   -0.298224
    22  C   -0.306690
    23  C   -0.476038
    24  H    0.150342
    25  H    0.148451
    26  H    0.152630
    27  H    0.157498
    28  H    0.154921
    29  H    0.155510
    30  H    0.160868
    31  C   -0.306168
    32  C   -0.300582
    33  C   -0.479574
    34  H    0.150252
    35  H    0.155866
    36  H    0.152812
    37  H    0.151259
    38  H    0.159240
    39  H    0.155341
    40  H    0.160381
 Sum of Mulliken charges =  -0.00000

 Dipole moment (field-independent basis, Debye):
    X=              0.0011    Y=             -0.0003    Z=             -0.0205  Tot=              0.0205
 Quadrupole moment (field-independent basis, Debye-Ang):
   XX=            -83.2781   YY=            -86.8074   ZZ=            -84.5938
   XY=             -0.1775   XZ=             -0.3029   YZ=             -0.0046

 Normal termination of Gaussian 16 at Wed May  5 23:13:32 2021.
