 Gaussian 16, Revision A.03,
 Gaussian 16:  EM64L-G16RevA.03 25-Dec-2016

 -------------
 #p 6-31g* mp2
 -------------

 ------------------------------------------------------
 Input file generated by CHIRIPA (05-May-2021 14:53:18)
 ------------------------------------------------------
 Symbolic Z-matrix:
 Charge =  0 Multiplicity = 1

                         Standard orientation:
 ---------------------------------------------------------------------
 Center     Atomic      Atomic             Coordinates (Angstroms)
 Number     Number       Type             X           Y           Z
 ---------------------------------------------------------------------
      1          6           0        3.148433    0.785150    0.226971
      2          6           0        2.668707    1.739977   -0.866717
      3          6           0        1.291755    2.334735   -0.569966
      4          1           0        2.415450   -0.024588    0.345315
      5          1           0        3.178642    1.321939    1.185271
      6          1           0        2.640735    1.201921   -1.822922
      7          1           0        3.403012    2.547432   -0.982604
      8          1           0        1.308831    2.895567    0.370128
      9          1           0        0.542223    1.542411   -0.474965
     10          1           0        0.968236    3.014283   -1.364579
     11          6           0        4.523491    0.182467   -0.055372
     12          6           0        5.003218   -0.772361    1.038316
     13          6           0        6.380169   -1.367119    0.741565
     14          1           0        4.493282   -0.354322   -1.013673
     15          1           0        5.256474    0.992204   -0.173716
     16          1           0        4.268913   -1.579815    1.154203
     17          1           0        5.031190   -0.234304    1.994521
     18          1           0        7.129701   -0.574795    0.646563
     19          1           0        6.363093   -1.927950   -0.198530
     20          1           0        6.703688   -2.046667    1.536178
     21          6           0       -4.726458    1.057311    1.079406
     22          6           0       -3.644397    1.654167    0.424099
     23          6           0       -2.680077    0.868757   -0.214466
     24          6           0       -2.829633   -0.516733   -0.177864
     25          6           0       -3.896411   -1.141084    0.466699
     26          6           0       -4.848795   -0.335954    1.098580
     27          1           0       -5.470929    1.675097    1.572863
     28          1           0       -3.546828    2.735950    0.407590
     29          1           0       -1.832404    1.304627   -0.729138
     30          1           0       -3.966707   -2.222045    0.466103
     31          1           0       -5.688093   -0.802225    1.606729
     32          7           0       -1.815068   -1.358651   -0.850347
     33          8           0       -1.969592   -2.577086   -0.803702
     34          8           0       -0.884538   -0.784169   -1.411349
 ---------------------------------------------------------------------

 SCF Done:  E(RHF) =  -669.536008977     A.U. after   15 cycles
 E2 =    -0.2091679548D+01 EUMP2 =    -0.67162768852516D+03

 The electronic state is 1-A.
 Alpha  occ. eigenvalues --  -20.60932 -20.60917 -15.85957 -11.31238 -11.27807
 Alpha  occ. eigenvalues --  -11.27765 -11.27539 -11.26810 -11.26788 -11.21084
 Alpha  occ. eigenvalues --  -11.21054 -11.20818 -11.20738 -11.20710 -11.20616
 Alpha  occ. eigenvalues --   -1.59990  -1.39547  -1.19408  -1.08822  -1.07866
 Alpha  occ. eigenvalues --   -1.04798  -1.03028  -0.95680  -0.95497  -0.86549
 Alpha  occ. eigenvalues --   -0.86196  -0.82502  -0.79115  -0.77698  -0.77538
 Alpha  occ. eigenvalues --   -0.72185  -0.71301  -0.70524  -0.65067  -0.64820
 Alpha  occ. eigenvalues --   -0.64464  -0.62173  -0.60390  -0.58876  -0.57116
 Alpha  occ. eigenvalues --   -0.55326  -0.54772  -0.53134  -0.52913  -0.52229
 Alpha  occ. eigenvalues --   -0.51924  -0.49483  -0.48933  -0.48880  -0.47423
 Alpha  occ. eigenvalues --   -0.46102  -0.45259  -0.45151  -0.44866  -0.43283
 Alpha  occ. eigenvalues --   -0.37391  -0.36394
 Alpha virt. eigenvalues --    0.04928   0.11213   0.16441   0.21165   0.23483
 Alpha virt. eigenvalues --    0.24666   0.26379   0.27324   0.27792   0.28163
 Alpha virt. eigenvalues --    0.29245   0.30702   0.31603   0.32126   0.32309

 Mulliken charges:
               1
     1  C   -0.300738
     2  C   -0.296258
     3  C   -0.489897
     4  H    0.159112
     5  H    0.144715
     6  H    0.159518
     7  H    0.148188
     8  H    0.149273
     9  H    0.169907
    10  H    0.154947
    11  C   -0.298498
    12  C   -0.299845
    13  C   -0.475547
    14  H    0.152784
    15  H    0.146842
    16  H    0.154744
    17  H    0.149431
    18  H    0.153534
    19  H    0.156292
    20  H    0.158911
    21  C   -0.170386
    22  C   -0.220569
    23  C   -0.173148
    24  C    0.156182
    25  C   -0.170536
    26  C   -0.218763
    27  H    0.225823
    28  H    0.224500
    29  H    0.283852
    30  H    0.275509
    31  H    0.223572
    32  N    0.489202
    33  O   -0.459043
    34  O   -0.463613
 Sum of Mulliken charges =  -0.00000

 Dipole moment (field-independent basis, Debye):
    X=             -3.6909    Y=              2.8113    Z=              2.3109  Tot=              5.1833
 Quadrupole moment (field-independent basis, Debye-Ang):
   XX=            -74.8475   YY=            -94.7577   ZZ=            -95.8021
   XY=             -3.7970   XZ=             -7.0774   YZ=             -2.6693

 Normal termination of Gaussian 16 at Thu May  6 15:39:38 2021.
