 Gaussian 16, Revision A.03,
 Gaussian 16:  EM64L-G16RevA.03 25-Dec-2016

 -------------
 #p 6-31g* mp2
 -------------

 ------------------------------------------------------
 Input file generated by CHIRIPA (05-May-2021 14:51:12)
 ------------------------------------------------------
 Symbolic Z-matrix:
 Charge =  0 Multiplicity = 1

                         Standard orientation:
 ---------------------------------------------------------------------
 Center     Atomic      Atomic             Coordinates (Angstroms)
 Number     Number       Type             X           Y           Z
 ---------------------------------------------------------------------
      1          6           0        2.992701    0.662646   -0.065165
      2          6           0        3.104482    2.187216   -0.099463
      3          6           0        1.745629    2.881845   -0.005635
      4          1           0        2.351188    0.329681   -0.892536
      5          1           0        2.488317    0.359725    0.862860
      6          1           0        3.609741    2.487093   -1.026502
      7          1           0        3.745958    2.516575    0.727971
      8          1           0        1.238286    2.611476    0.926086
      9          1           0        1.101295    2.581826   -0.838355
     10          1           0        1.848902    3.971112   -0.031957
     11          6           0        4.342840   -0.046028   -0.158081
     12          6           0        4.231059   -1.570598   -0.123784
     13          6           0        5.589912   -2.265227   -0.217612
     14          1           0        4.847223    0.256893   -1.086107
     15          1           0        4.984352    0.286936    0.669289
     16          1           0        3.589583   -1.899958   -0.951217
     17          1           0        3.725799   -1.870476    0.803256
     18          1           0        6.234245   -1.965208    0.615109
     19          1           0        6.097255   -1.994858   -1.149333
     20          1           0        5.486639   -3.354494   -0.191290
     21          6           0       -4.392083   -0.369458    0.346280
     22          6           0       -5.411271   -0.192393   -0.779725
     23          6           0       -6.855850   -0.317445   -0.294598
     24          1           0       -4.539398   -1.352385    0.814359
     25          1           0       -4.584058    0.380171    1.126406
     26          1           0       -5.216565   -0.941245   -1.558137
     27          1           0       -5.261388    0.790149   -1.245303
     28          1           0       -7.073572    0.439068    0.466248
     29          1           0       -7.028495   -1.302164    0.151635
     30          1           0       -7.567758   -0.187520   -1.115674
     31          6           0       -2.943457   -0.247159   -0.123034
     32          6           0       -1.924270   -0.424224    1.002971
     33          6           0       -0.479691   -0.299172    0.517845
     34          1           0       -2.751483   -0.996789   -0.903159
     35          1           0       -2.796142    0.735768   -0.591112
     36          1           0       -2.074153   -1.406767    1.468550
     37          1           0       -2.118976    0.324627    1.781384
     38          1           0       -0.307046    0.685546    0.071611
     39          1           0       -0.261969   -1.055686   -0.243000
     40          1           0        0.232218   -0.429098    1.338920
 ---------------------------------------------------------------------

 SCF Done:  E(RHF) =  -470.731661117     A.U. after   11 cycles
 E2 =    -0.1584044254D+01 EUMP2 =    -0.47231570537092D+03

 The electronic state is 1-A.
 Alpha  occ. eigenvalues --  -11.21575 -11.21556 -11.21555 -11.21501 -11.21362
 Alpha  occ. eigenvalues --  -11.21311 -11.21302 -11.21214 -11.21057 -11.21051
 Alpha  occ. eigenvalues --  -11.21038 -11.20885  -1.08403  -1.08344  -1.03535
 Alpha  occ. eigenvalues --   -1.03429  -0.95940  -0.95924  -0.86976  -0.86940
 Alpha  occ. eigenvalues --   -0.79725  -0.79426  -0.78276  -0.78037  -0.65021
 Alpha  occ. eigenvalues --   -0.65002  -0.60911  -0.60883  -0.59380  -0.59242
 Alpha  occ. eigenvalues --   -0.57667  -0.57447  -0.55231  -0.55200  -0.52780
 Alpha  occ. eigenvalues --   -0.52619  -0.52399  -0.52243  -0.49892  -0.49868
 Alpha  occ. eigenvalues --   -0.48038  -0.47702  -0.46580  -0.46550  -0.45904
 Alpha  occ. eigenvalues --   -0.45689  -0.45615  -0.45438  -0.43737  -0.43611
 Alpha virt. eigenvalues --    0.21861   0.23083   0.23725   0.24772   0.25788
 Alpha virt. eigenvalues --    0.26288   0.26568   0.27637   0.27852   0.29877
 Alpha virt. eigenvalues --    0.30611   0.31268   0.31666   0.31959   0.32071

 Mulliken charges:
               1
     1  C   -0.301321
     2  C   -0.299029
     3  C   -0.478424
     4  H    0.151987
     5  H    0.153966
     6  H    0.151406
     7  H    0.151365
     8  H    0.157219
     9  H    0.155195
    10  H    0.160186
    11  C   -0.297881
    12  C   -0.299313
    13  C   -0.475605
    14  H    0.148884
    15  H    0.148916
    16  H    0.151763
    17  H    0.151525
    18  H    0.155033
    19  H    0.155093
    20  H    0.160014
    21  C   -0.298125
    22  C   -0.299583
    23  C   -0.475665
    24  H    0.149549
    25  H    0.149453
    26  H    0.151781
    27  H    0.151875
    28  H    0.155156
    29  H    0.155121
    30  H    0.160138
    31  C   -0.298507
    32  C   -0.300854
    33  C   -0.478955
    34  H    0.149135
    35  H    0.149417
    36  H    0.151105
    37  H    0.151069
    38  H    0.163403
    39  H    0.153858
    40  H    0.159653
 Sum of Mulliken charges =  -0.00000

 Dipole moment (field-independent basis, Debye):
    X=              0.0161    Y=              0.0188    Z=             -0.0040  Tot=              0.0250
 Quadrupole moment (field-independent basis, Debye-Ang):
   XX=            -87.1375   YY=            -84.2775   ZZ=            -83.7674
   XY=              0.4596   XZ=              0.3873   YZ=              0.2053

 Normal termination of Gaussian 16 at Thu May  6 02:18:11 2021.
