 Gaussian 16, Revision A.03,
 Gaussian 16:  EM64L-G16RevA.03 25-Dec-2016

 -------------
 #p 6-31g* mp2
 -------------

 ------------------------------------------------------
 Input file generated by CHIRIPA (05-May-2021 14:55:24)
 ------------------------------------------------------
 Symbolic Z-matrix:
 Charge =  0 Multiplicity = 1

                         Standard orientation:
 ---------------------------------------------------------------------
 Center     Atomic      Atomic             Coordinates (Angstroms)
 Number     Number       Type             X           Y           Z
 ---------------------------------------------------------------------
      1          6           0       -0.660050   -2.783032    0.591822
      2          6           0       -1.183053   -1.965835    1.599382
      3          6           0       -1.924936   -0.825991    1.275479
      4          6           0       -2.125439   -0.531847   -0.072322
      5          6           0       -1.617344   -1.326277   -1.098972
      6          6           0       -0.878479   -2.461213   -0.751771
      7          1           0       -0.084910   -3.666584    0.852488
      8          1           0       -1.015002   -2.213314    2.643680
      9          1           0       -2.341286   -0.175906    2.035386
     10          1           0       -1.801554   -1.053759   -2.131066
     11          1           0       -0.473509   -3.094031   -1.536363
     12          7           0       -2.909239    0.672257   -0.427557
     13          8           0       -3.071793    0.909600   -1.622497
     14          8           0       -3.346186    1.355890    0.495676
     15          6           0        2.245301    1.532956    0.377597
     16          6           0        0.849449    1.891507   -0.133309
     17          6           0        0.242645    3.090196    0.596573
     18          1           0        2.191273    1.319724    1.453960
     19          1           0        2.904700    2.404598    0.264343
     20          1           0        0.193236    1.019010   -0.020404
     21          1           0        0.906773    2.103725   -1.208621
     22          1           0        0.874042    3.976094    0.473591
     23          1           0        0.156450    2.885217    1.668559
     24          1           0       -0.755139    3.329181    0.215559
     25          6           0        2.865122    0.336606   -0.342332
     26          6           0        4.260973   -0.021945    0.168575
     27          6           0        4.867777   -1.220634   -0.561307
     28          1           0        2.205723   -0.535036   -0.229078
     29          1           0        2.919150    0.549838   -1.418695
     30          1           0        4.203650   -0.234162    1.243886
     31          1           0        4.917187    0.850552    0.055669
     32          1           0        4.953973   -1.015655   -1.633294
     33          1           0        4.236381   -2.106532   -0.438326
     34          1           0        5.865562   -1.459620   -0.180294
 ---------------------------------------------------------------------

 SCF Done:  E(RHF) =  -669.535129778     A.U. after   15 cycles
 E2 =    -0.2094485120D+01 EUMP2 =    -0.67162961489813D+03

 The electronic state is 1-A.
 Alpha  occ. eigenvalues --  -20.60880 -20.60870 -15.85912 -11.31260 -11.27849
 Alpha  occ. eigenvalues --  -11.27844 -11.27635 -11.26903 -11.26892 -11.21776
 Alpha  occ. eigenvalues --  -11.21440 -11.21370 -11.21306 -11.21242 -11.20537
 Alpha  occ. eigenvalues --   -1.59943  -1.39495  -1.19487  -1.08877  -1.08404
 Alpha  occ. eigenvalues --   -1.04876  -1.03466  -0.95906  -0.95700  -0.86917
 Alpha  occ. eigenvalues --   -0.86272  -0.82529  -0.79554  -0.78221  -0.77570
 Alpha  occ. eigenvalues --   -0.72136  -0.71282  -0.70576  -0.65128  -0.65056
 Alpha  occ. eigenvalues --   -0.64873  -0.62215  -0.60896  -0.59288  -0.57500
 Alpha  occ. eigenvalues --   -0.55381  -0.55214  -0.53303  -0.52963  -0.52547
 Alpha  occ. eigenvalues --   -0.52328  -0.49869  -0.48900  -0.48891  -0.47856
 Alpha  occ. eigenvalues --   -0.46613  -0.45732  -0.45618  -0.44885  -0.43685
 Alpha  occ. eigenvalues --   -0.37377  -0.36478
 Alpha virt. eigenvalues --    0.04941   0.11135   0.16417   0.21288   0.22803
 Alpha virt. eigenvalues --    0.24256   0.26523   0.27093   0.27471   0.27842
 Alpha virt. eigenvalues --    0.28359   0.30893   0.31413   0.31668   0.32214

 Mulliken charges:
               1
     1  C   -0.172002
     2  C   -0.216673
     3  C   -0.173130
     4  C    0.156781
     5  C   -0.171162
     6  C   -0.216350
     7  H    0.226379
     8  H    0.224080
     9  H    0.276171
    10  H    0.276244
    11  H    0.224629
    12  N    0.491455
    13  O   -0.459948
    14  O   -0.460258
    15  C   -0.295915
    16  C   -0.308394
    17  C   -0.479372
    18  H    0.146608
    19  H    0.149929
    20  H    0.154584
    21  H    0.153426
    22  H    0.153329
    23  H    0.151317
    24  H    0.175090
    25  C   -0.299844
    26  C   -0.299245
    27  C   -0.474699
    28  H    0.147628
    29  H    0.149367
    30  H    0.150181
    31  H    0.153448
    32  H    0.155854
    33  H    0.149931
    34  H    0.160562
 Sum of Mulliken charges =  -0.00000

 Dipole moment (field-independent basis, Debye):
    X=              2.5951    Y=             -4.2208    Z=              1.2132  Tot=              5.1011
 Quadrupole moment (field-independent basis, Debye-Ang):
   XX=           -107.6357   YY=            -90.7588   ZZ=            -89.9500
   XY=              8.1307   XZ=             -3.6542   YZ=             -0.1318

 Normal termination of Gaussian 16 at Wed May  5 20:48:17 2021.
