 Gaussian 16, Revision A.03,
 Gaussian 16:  EM64L-G16RevA.03 25-Dec-2016

 -------------
 #p 6-31g* mp2
 -------------

 ------------------------------------------------------
 Input file generated by CHIRIPA (05-May-2021 14:57:26)
 ------------------------------------------------------
 Symbolic Z-matrix:
 Charge =  0 Multiplicity = 1

                         Standard orientation:
 ---------------------------------------------------------------------
 Center     Atomic      Atomic             Coordinates (Angstroms)
 Number     Number       Type             X           Y           Z
 ---------------------------------------------------------------------
      1          6           0       -1.242160   -0.781501   -0.375998
      2          6           0       -1.644036    0.539457   -0.152198
      3          6           0       -2.998110    0.854234   -0.004058
      4          6           0       -3.927662   -0.181406   -0.085740
      5          6           0       -3.558623   -1.507226   -0.307778
      6          6           0       -2.199049   -1.798833   -0.452938
      7          1           0       -0.188146   -1.017028   -0.489919
      8          1           0       -0.903106    1.331569   -0.091980
      9          1           0       -3.336900    1.868302    0.170029
     10          1           0       -4.320433   -2.275357   -0.362909
     11          1           0       -1.889847   -2.825605   -0.626657
     12          7           0       -5.364072    0.139570    0.069511
     13          8           0       -6.163409   -0.790971   -0.006585
     14          8           0       -5.663393    1.315614    0.264354
     15          6           0        1.996140    2.098134    0.251945
     16          6           0        1.813635    0.928386    0.996863
     17          6           0        2.746224   -0.110799    0.926718
     18          6           0        3.854771    0.054119    0.097733
     19          6           0        4.064565    1.207434   -0.656681
     20          6           0        3.119042    2.233686   -0.570998
     21          1           0        1.266659    2.900375    0.312471
     22          1           0        0.942521    0.820353    1.636810
     23          1           0        2.629607   -1.027085    1.492613
     24          1           0        4.942904    1.286021   -1.285778
     25          1           0        3.263363    3.141005   -1.150644
     26          7           0        4.848906   -1.039175    0.015249
     27          8           0        5.817121   -0.869308   -0.722546
     28          8           0        4.641070   -2.045263    0.689954
 ---------------------------------------------------------------------

 SCF Done:  E(RHF) =  -868.336643110     A.U. after   16 cycles
 E2 =    -0.2602110491D+01 EUMP2 =    -0.87093875360121D+03

 The electronic state is 1-A.
 Alpha  occ. eigenvalues --  -20.61667 -20.61656 -20.61175 -20.61165 -15.86723
 Alpha  occ. eigenvalues --  -15.86230 -11.32299 -11.31670 -11.28894 -11.28814
 Alpha  occ. eigenvalues --  -11.28674 -11.28310 -11.28226 -11.27951 -11.27950
 Alpha  occ. eigenvalues --  -11.27881 -11.27322 -11.27207  -1.60736  -1.60247
 Alpha  occ. eigenvalues --   -1.40283  -1.39799  -1.20493  -1.19857  -1.09865
 Alpha  occ. eigenvalues --   -1.09226  -1.05911  -1.05280  -0.96654  -0.96047
 Alpha  occ. eigenvalues --   -0.87336  -0.86641  -0.83468  -0.82884  -0.78480
 Alpha  occ. eigenvalues --   -0.77930  -0.72934  -0.72446  -0.72066  -0.71610
 Alpha  occ. eigenvalues --   -0.71573  -0.70935  -0.66188  -0.66020  -0.65492
 Alpha  occ. eigenvalues --   -0.65171  -0.63228  -0.62587  -0.56429  -0.55750
 Alpha  occ. eigenvalues --   -0.54240  -0.54009  -0.53555  -0.53325  -0.49709
 Alpha  occ. eigenvalues --   -0.49678  -0.49211  -0.49197  -0.45642  -0.45188
 Alpha  occ. eigenvalues --   -0.38490  -0.37893  -0.37443  -0.36887
 Alpha virt. eigenvalues --    0.03976   0.04626   0.09936   0.10722   0.15345
 Alpha virt. eigenvalues --    0.16094   0.19372   0.21845   0.25253   0.26322
 Alpha virt. eigenvalues --    0.28087   0.28370   0.29776   0.30982   0.31801

 Mulliken charges:
               1
     1  C   -0.176546
     2  C   -0.224768
     3  C   -0.171614
     4  C    0.158755
     5  C   -0.169765
     6  C   -0.218736
     7  H    0.230818
     8  H    0.217334
     9  H    0.274688
    10  H    0.277677
    11  H    0.227138
    12  N    0.488108
    13  O   -0.458526
    14  O   -0.460607
    15  C   -0.176833
    16  C   -0.226168
    17  C   -0.177681
    18  C    0.159875
    19  C   -0.169851
    20  C   -0.217292
    21  H    0.225595
    22  H    0.229936
    23  H    0.278221
    24  H    0.279586
    25  H    0.228310
    26  N    0.487839
    27  O   -0.456626
    28  O   -0.458864
 Sum of Mulliken charges =  -0.00000

 Dipole moment (field-independent basis, Debye):
    X=              1.8089    Y=              2.6396    Z=             -0.3222  Tot=              3.2161
 Quadrupole moment (field-independent basis, Debye-Ang):
   XX=           -169.3774   YY=            -98.0173   ZZ=           -103.7310
   XY=             21.7198   XZ=              0.5818   YZ=             -0.7742

 Normal termination of Gaussian 16 at Thu May  6 08:23:47 2021.
