 Gaussian 16, Revision A.03,
 Gaussian 16:  EM64L-G16RevA.03 25-Dec-2016

 -------------
 #p 6-31g* mp2
 -------------

 ------------------------------------------------------
 Input file generated by CHIRIPA (05-May-2021 14:57:26)
 ------------------------------------------------------
 Symbolic Z-matrix:
 Charge =  0 Multiplicity = 1

                         Standard orientation:
 ---------------------------------------------------------------------
 Center     Atomic      Atomic             Coordinates (Angstroms)
 Number     Number       Type             X           Y           Z
 ---------------------------------------------------------------------
      1          6           0       -4.901654   -1.786301    0.333737
      2          6           0       -5.301314   -0.446956    0.388038
      3          6           0       -4.410315    0.574329    0.045044
      4          6           0       -3.121468    0.218765   -0.349592
      5          6           0       -2.693441   -1.106362   -0.413800
      6          6           0       -3.601286   -2.111157   -0.066304
      7          1           0       -5.600346   -2.573255    0.601931
      8          1           0       -6.310573   -0.191719    0.698351
      9          1           0       -4.693392    1.619407    0.078165
     10          1           0       -1.680790   -1.329704   -0.726970
     11          1           0       -3.288145   -3.150449   -0.109410
     12          7           0       -2.169291    1.291225   -0.715088
     13          8           0       -1.039362    0.951723   -1.059526
     14          8           0       -2.570932    2.451014   -0.650205
     15          6           0        1.310927    1.058274    1.422648
     16          6           0        2.344270    1.841411    0.897846
     17          6           0        3.439247    1.242546    0.267821
     18          6           0        3.468606   -0.148381    0.179791
     19          6           0        2.454606   -0.955824    0.692754
     20          6           0        1.369290   -0.335388    1.318610
     21          1           0        0.464075    1.531865    1.910448
     22          1           0        2.301608    2.923968    0.977198
     23          1           0        4.252944    1.824840   -0.147210
     24          1           0        2.525191   -2.032642    0.598423
     25          1           0        0.568220   -0.946097    1.725262
     26          7           0        4.622696   -0.793792   -0.484983
     27          8           0        4.624873   -2.021166   -0.549678
     28          8           0        5.503241   -0.060069   -0.928748
 ---------------------------------------------------------------------

 SCF Done:  E(RHF) =  -868.337911188     A.U. after   16 cycles
 E2 =    -0.2600456793D+01 EUMP2 =    -0.87093836798097D+03

 The electronic state is 1-A.
 Alpha  occ. eigenvalues --  -20.61563 -20.61503 -20.60168 -20.60154 -15.86551
 Alpha  occ. eigenvalues --  -15.85215 -11.31888 -11.30389 -11.28440 -11.28426
 Alpha  occ. eigenvalues --  -11.28139 -11.27430 -11.27413 -11.27041 -11.26940
 Alpha  occ. eigenvalues --  -11.26677 -11.26019 -11.25851  -1.60616  -1.59243
 Alpha  occ. eigenvalues --   -1.40163  -1.38804  -1.20048  -1.18552  -1.09446
 Alpha  occ. eigenvalues --   -1.07971  -1.05434  -1.03963  -0.96287  -0.94847
 Alpha  occ. eigenvalues --   -0.86829  -0.85373  -0.83111  -0.81711  -0.78175
 Alpha  occ. eigenvalues --   -0.76788  -0.72773  -0.71969  -0.71444  -0.71129
 Alpha  occ. eigenvalues --   -0.70561  -0.69682  -0.65688  -0.65420  -0.64232
 Alpha  occ. eigenvalues --   -0.64005  -0.62774  -0.61351  -0.55913  -0.54467
 Alpha  occ. eigenvalues --   -0.53778  -0.53511  -0.52240  -0.52091  -0.49550
 Alpha  occ. eigenvalues --   -0.49535  -0.48205  -0.48182  -0.45574  -0.44255
 Alpha  occ. eigenvalues --   -0.38025  -0.37045  -0.36376  -0.35540
 Alpha virt. eigenvalues --    0.04296   0.05809   0.10568   0.12121   0.15828
 Alpha virt. eigenvalues --    0.17338   0.20744   0.22049   0.26553   0.27406
 Alpha virt. eigenvalues --    0.28270   0.28917   0.30458   0.31258   0.32218

 Mulliken charges:
               1
     1  C   -0.170454
     2  C   -0.218292
     3  C   -0.171470
     4  C    0.156244
     5  C   -0.175933
     6  C   -0.218834
     7  H    0.228072
     8  H    0.225589
     9  H    0.276377
    10  H    0.276765
    11  H    0.225558
    12  N    0.484797
    13  O   -0.455879
    14  O   -0.461541
    15  C   -0.153152
    16  C   -0.214670
    17  C   -0.169835
    18  C    0.158411
    19  C   -0.172417
    20  C   -0.215660
    21  H    0.223299
    22  H    0.224301
    23  H    0.273864
    24  H    0.269501
    25  H    0.213274
    26  N    0.488345
    27  O   -0.464708
    28  O   -0.461552
 Sum of Mulliken charges =  -0.00000

 Dipole moment (field-independent basis, Debye):
    X=             -7.6916    Y=             -1.3256    Z=              3.5715  Tot=              8.5834
 Quadrupole moment (field-independent basis, Debye-Ang):
   XX=           -109.8005   YY=           -101.0791   ZZ=           -106.2933
   XY=             19.8067   XZ=              3.2596   YZ=              1.6401

 Normal termination of Gaussian 16 at Wed May  5 18:00:08 2021.
