 Gaussian 16, Revision A.03,
 Gaussian 16:  EM64L-G16RevA.03 25-Dec-2016

 -------------
 #p 6-31g* mp2
 -------------

 ------------------------------------------------------
 Input file generated by CHIRIPA (05-May-2021 14:51:07)
 ------------------------------------------------------
 Symbolic Z-matrix:
 Charge =  0 Multiplicity = 1

                         Standard orientation:
 ---------------------------------------------------------------------
 Center     Atomic      Atomic             Coordinates (Angstroms)
 Number     Number       Type             X           Y           Z
 ---------------------------------------------------------------------
      1          6           0        1.903721   -1.260178    0.025863
      2          6           0        1.762619   -2.071881    1.313968
      3          6           0        0.557443   -3.012528    1.290926
      4          1           0        0.985855   -0.678542   -0.135893
      5          1           0        1.991351   -1.949096   -0.825670
      6          1           0        1.676671   -1.381642    2.162967
      7          1           0        2.681004   -2.651506    1.472776
      8          1           0        0.639775   -3.723914    0.462825
      9          1           0       -0.370263   -2.446835    1.156937
     10          1           0        0.475573   -3.582991    2.221372
     11          6           0        3.103978   -0.315165    0.033714
     12          6           0        3.245081    0.496537   -1.254391
     13          6           0        4.450256    1.437184   -1.231349
     14          1           0        3.016349    0.373752    0.885248
     15          1           0        4.021845   -0.896802    0.195470
     16          1           0        2.326696    1.076162   -1.413199
     17          1           0        3.331028   -0.193702   -2.103389
     18          1           0        5.377963    0.871491   -1.097360
     19          1           0        4.367925    2.148570   -0.403248
     20          1           0        4.532127    2.007647   -2.161795
     21          6           0       -3.115787    0.330959   -0.049228
     22          6           0       -3.106459   -0.645572   -1.225784
     23          6           0       -4.337151   -1.552521   -1.251039
     24          1           0       -3.174126   -0.236566    0.889632
     25          1           0       -4.024829    0.946186   -0.099573
     26          1           0       -2.197024   -1.257833   -1.174010
     27          1           0       -3.047942   -0.075663   -2.161944
     28          1           0       -5.252877   -0.957266   -1.326651
     29          1           0       -4.397124   -2.146153   -0.333104
     30          1           0       -4.309981   -2.242556   -2.100141
     31          6           0       -1.891913    1.244385   -0.010349
     32          6           0       -1.901240    2.220916    1.166207
     33          6           0       -0.670549    3.127865    1.191462
     34          1           0       -0.982872    0.629158    0.039995
     35          1           0       -1.833574    1.811910   -0.949209
     36          1           0       -1.959757    1.651008    2.102367
     37          1           0       -2.810675    2.833176    1.114433
     38          1           0       -0.610575    3.721496    0.273527
     39          1           0        0.245177    2.532610    1.267074
     40          1           0       -0.697718    3.817900    2.040564
 ---------------------------------------------------------------------

 SCF Done:  E(RHF) =  -470.733453913     A.U. after   11 cycles
 E2 =    -0.1583798701D+01 EUMP2 =    -0.47231725261341D+03

 The electronic state is 1-A.
 Alpha  occ. eigenvalues --  -11.21662 -11.21657 -11.21612 -11.21596 -11.21453
 Alpha  occ. eigenvalues --  -11.21435 -11.21392 -11.21375 -11.21146 -11.21146
 Alpha  occ. eigenvalues --  -11.21069 -11.21060  -1.08497  -1.08447  -1.03568
 Alpha  occ. eigenvalues --   -1.03558  -0.96023  -0.96007  -0.87049  -0.87013
 Alpha  occ. eigenvalues --   -0.79630  -0.79620  -0.78398  -0.78179  -0.65310
 Alpha  occ. eigenvalues --   -0.64917  -0.60971  -0.60948  -0.59392  -0.59371
 Alpha  occ. eigenvalues --   -0.57662  -0.57588  -0.55345  -0.55273  -0.52713
 Alpha  occ. eigenvalues --   -0.52699  -0.52482  -0.52403  -0.50066  -0.49857
 Alpha  occ. eigenvalues --   -0.47971  -0.47927  -0.46755  -0.46642  -0.46276
 Alpha  occ. eigenvalues --   -0.45800  -0.45774  -0.45163  -0.43825  -0.43812
 Alpha virt. eigenvalues --    0.19076   0.21990   0.24309   0.24664   0.25257
 Alpha virt. eigenvalues --    0.26662   0.26861   0.27742   0.28335   0.29986
 Alpha virt. eigenvalues --    0.31513   0.31600   0.31667   0.32018   0.32414

 Mulliken charges:
               1
     1  C   -0.308940
     2  C   -0.299123
     3  C   -0.477459
     4  H    0.158670
     5  H    0.149980
     6  H    0.151571
     7  H    0.152476
     8  H    0.155691
     9  H    0.155417
    10  H    0.160692
    11  C   -0.297992
    12  C   -0.300362
    13  C   -0.475740
    14  H    0.149261
    15  H    0.149909
    16  H    0.153072
    17  H    0.151928
    18  H    0.155032
    19  H    0.155450
    20  H    0.160342
    21  C   -0.297797
    22  C   -0.301837
    23  C   -0.475657
    24  H    0.149515
    25  H    0.149892
    26  H    0.153848
    27  H    0.152044
    28  H    0.155111
    29  H    0.155417
    30  H    0.160478
    31  C   -0.309038
    32  C   -0.298986
    33  C   -0.476333
    34  H    0.158470
    35  H    0.149915
    36  H    0.151909
    37  H    0.152431
    38  H    0.155516
    39  H    0.154494
    40  H    0.160732
 Sum of Mulliken charges =  -0.00000

 Dipole moment (field-independent basis, Debye):
    X=             -0.0041    Y=              0.0010    Z=             -0.0116  Tot=              0.0123
 Quadrupole moment (field-independent basis, Debye-Ang):
   XX=            -85.5367   YY=            -84.7564   ZZ=            -84.3209
   XY=             -2.0212   XZ=              0.0333   YZ=             -0.1157

 Normal termination of Gaussian 16 at Wed May  5 19:39:15 2021.
