 Gaussian 16, Revision A.03,
 Gaussian 16:  EM64L-G16RevA.03 25-Dec-2016

 -------------
 #p 6-31g* mp2
 -------------

 ------------------------------------------------------
 Input file generated by CHIRIPA (05-May-2021 14:53:12)
 ------------------------------------------------------
 Symbolic Z-matrix:
 Charge =  0 Multiplicity = 1

                         Standard orientation:
 ---------------------------------------------------------------------
 Center     Atomic      Atomic             Coordinates (Angstroms)
 Number     Number       Type             X           Y           Z
 ---------------------------------------------------------------------
      1          6           0       -5.411716    0.450726   -0.117186
      2          6           0       -6.799192   -0.160282   -0.316088
      3          6           0       -7.918211    0.879444   -0.248565
      4          1           0       -5.379636    0.963487    0.853892
      5          1           0       -5.244646    1.220834   -0.882965
      6          1           0       -6.963047   -0.929974    0.448989
      7          1           0       -6.827912   -0.671811   -1.286721
      8          1           0       -7.782348    1.642404   -1.021893
      9          1           0       -7.918251    1.382774    0.723680
     10          1           0       -8.901444    0.421008   -0.393302
     11          6           0       -4.282569   -0.576188   -0.182014
     12          6           0       -2.895092    0.034821    0.016888
     13          6           0       -1.776074   -1.004906   -0.050635
     14          1           0       -4.449639   -1.346295    0.583764
     15          1           0       -4.314648   -1.088948   -1.153093
     16          1           0       -2.866372    0.546350    0.987521
     17          1           0       -2.731237    0.804512   -0.748189
     18          1           0       -1.776033   -1.508236   -1.022880
     19          1           0       -1.911936   -1.767865    0.722693
     20          1           0       -0.792841   -0.546469    0.094101
     21          6           0        6.063533    0.520997   -0.862804
     22          6           0        5.563317   -0.785214   -0.851784
     23          6           0        4.303132   -1.058381   -0.311543
     24          6           0        3.566727    0.003378    0.211587
     25          6           0        4.037668    1.315435    0.215188
     26          6           0        5.300457    1.565310   -0.330222
     27          1           0        7.043487    0.724152   -1.284484
     28          1           0        6.153725   -1.598209   -1.264701
     29          1           0        3.891672   -2.060209   -0.290146
     30          1           0        3.425860    2.105128    0.634109
     31          1           0        5.686394    2.580714   -0.337431
     32          7           0        2.231246   -0.273482    0.786252
     33          8           0        1.602109    0.679440    1.240963
     34          8           0        1.838922   -1.438167    0.771083
 ---------------------------------------------------------------------

 SCF Done:  E(RHF) =  -669.536375574     A.U. after   15 cycles
 E2 =    -0.2091457472D+01 EUMP2 =    -0.67162783304529D+03

 The electronic state is 1-A.
 Alpha  occ. eigenvalues --  -20.61029 -20.61023 -15.86029 -11.31336 -11.27891
 Alpha  occ. eigenvalues --  -11.27887 -11.27626 -11.26891 -11.26881 -11.20946
 Alpha  occ. eigenvalues --  -11.20564 -11.20533 -11.20339 -11.20214 -11.19181
 Alpha  occ. eigenvalues --   -1.60074  -1.39626  -1.19498  -1.08907  -1.07467
 Alpha  occ. eigenvalues --   -1.04888  -1.02458  -0.95752  -0.94880  -0.86290
 Alpha  occ. eigenvalues --   -0.85896  -0.82584  -0.78568  -0.77645  -0.77234
 Alpha  occ. eigenvalues --   -0.72232  -0.71392  -0.70606  -0.65150  -0.64891
 Alpha  occ. eigenvalues --   -0.64114  -0.62234  -0.59874  -0.58324  -0.56476
 Alpha  occ. eigenvalues --   -0.55391  -0.54199  -0.53226  -0.52979  -0.51571
 Alpha  occ. eigenvalues --   -0.51323  -0.49007  -0.48963  -0.48826  -0.46837
 Alpha  occ. eigenvalues --   -0.45644  -0.45046  -0.44767  -0.44693  -0.42649
 Alpha  occ. eigenvalues --   -0.37472  -0.36487
 Alpha virt. eigenvalues --    0.04846   0.11169   0.16357   0.21310   0.23744
 Alpha virt. eigenvalues --    0.25468   0.27230   0.27547   0.28185   0.28397
 Alpha virt. eigenvalues --    0.29207   0.30856   0.32404   0.32431   0.32631

 Mulliken charges:
               1
     1  C   -0.297219
     2  C   -0.298815
     3  C   -0.475127
     4  H    0.149046
     5  H    0.147371
     6  H    0.151290
     7  H    0.150468
     8  H    0.153958
     9  H    0.154624
    10  H    0.158169
    11  C   -0.297176
    12  C   -0.299170
    13  C   -0.479907
    14  H    0.148343
    15  H    0.146319
    16  H    0.153279
    17  H    0.146022
    18  H    0.143851
    19  H    0.154099
    20  H    0.183513
    21  C   -0.170425
    22  C   -0.218658
    23  C   -0.170724
    24  C    0.160789
    25  C   -0.170769
    26  C   -0.218649
    27  H    0.226159
    28  H    0.224016
    29  H    0.276199
    30  H    0.275983
    31  H    0.223979
    32  N    0.486311
    33  O   -0.460086
    34  O   -0.457062
 Sum of Mulliken charges =  -0.00000

 Dipole moment (field-independent basis, Debye):
    X=              5.1579    Y=              0.9705    Z=             -1.9286  Tot=              5.5915
 Quadrupole moment (field-independent basis, Debye-Ang):
   XX=            -63.8343   YY=            -90.5044   ZZ=            -95.2701
   XY=              3.5287   XZ=             -6.9225   YZ=              1.1858

 Normal termination of Gaussian 16 at Thu May  6 10:26:50 2021.
