 Gaussian 16, Revision A.03,
 Gaussian 16:  EM64L-G16RevA.03 25-Dec-2016

 -------------
 #p 6-31g* mp2
 -------------

 ------------------------------------------------------
 Input file generated by CHIRIPA (05-May-2021 14:55:20)
 ------------------------------------------------------
 Symbolic Z-matrix:
 Charge =  0 Multiplicity = 1

                         Standard orientation:
 ---------------------------------------------------------------------
 Center     Atomic      Atomic             Coordinates (Angstroms)
 Number     Number       Type             X           Y           Z
 ---------------------------------------------------------------------
      1          6           0       -2.463435    1.892343   -1.529668
      2          6           0       -1.278424    1.173794   -1.340047
      3          6           0       -1.273221    0.001092   -0.578935
      4          6           0       -2.476444   -0.426144   -0.019458
      5          6           0       -3.673376    0.267738   -0.190252
      6          6           0       -3.655028    1.437824   -0.955178
      7          1           0       -2.458329    2.802310   -2.122400
      8          1           0       -0.351536    1.524411   -1.785010
      9          1           0       -0.370187   -0.574620   -0.416140
     10          1           0       -4.581741   -0.106735    0.265883
     11          1           0       -4.576829    1.993822   -1.100763
     12          7           0       -2.483402   -1.666246    0.788317
     13          8           0       -3.556614   -2.021568    1.270602
     14          8           0       -1.415511   -2.259434    0.923870
     15          6           0        3.728632   -0.073781   -0.181047
     16          6           0        3.407569   -1.533837   -0.502198
     17          6           0        4.537989   -2.235856   -1.255267
     18          1           0        3.937046    0.463480   -1.116386
     19          1           0        4.650115   -0.031013    0.415975
     20          1           0        2.486208   -1.573929   -1.097266
     21          1           0        3.199707   -2.067640    0.433999
     22          1           0        5.459369   -2.225468   -0.664039
     23          1           0        4.741818   -1.728951   -2.204005
     24          1           0        4.287397   -3.278419   -1.474648
     25          6           0        2.608128    0.641487    0.571673
     26          6           0        2.929191    2.101543    0.892825
     27          6           0        1.798771    2.803563    1.645894
     28          1           0        1.686645    0.598720   -0.025349
     29          1           0        2.399713    0.104227    1.507013
     30          1           0        3.137053    2.635346   -0.043372
     31          1           0        3.850551    2.141635    1.487892
     32          1           0        1.594942    2.296659    2.594631
     33          1           0        0.877391    2.793174    1.054666
     34          1           0        2.049362    3.846125    1.865273
 ---------------------------------------------------------------------

 SCF Done:  E(RHF) =  -669.535324940     A.U. after   15 cycles
 E2 =    -0.2092524745D+01 EUMP2 =    -0.67162784968449D+03

 The electronic state is 1-A.
 Alpha  occ. eigenvalues --  -20.60749 -20.60743 -15.85803 -11.31173 -11.27768
 Alpha  occ. eigenvalues --  -11.27734 -11.27521 -11.26788 -11.26772 -11.22012
 Alpha  occ. eigenvalues --  -11.21853 -11.21785 -11.21681 -11.21399 -11.21173
 Alpha  occ. eigenvalues --   -1.59824  -1.39377  -1.19364  -1.08785  -1.08755
 Alpha  occ. eigenvalues --   -1.04775  -1.03807  -0.96264  -0.95587  -0.87275
 Alpha  occ. eigenvalues --   -0.86166  -0.82427  -0.79874  -0.78626  -0.77446
 Alpha  occ. eigenvalues --   -0.72023  -0.71147  -0.70479  -0.65462  -0.65006
 Alpha  occ. eigenvalues --   -0.64778  -0.62129  -0.61201  -0.59625  -0.57863
 Alpha  occ. eigenvalues --   -0.55571  -0.55268  -0.53099  -0.52951  -0.52865
 Alpha  occ. eigenvalues --   -0.52651  -0.50210  -0.48783  -0.48775  -0.48178
 Alpha  occ. eigenvalues --   -0.46923  -0.46123  -0.46046  -0.44780  -0.44087
 Alpha  occ. eigenvalues --   -0.37345  -0.36350
 Alpha virt. eigenvalues --    0.05047   0.11247   0.16417   0.19572   0.23005
 Alpha virt. eigenvalues --    0.23632   0.24742   0.26548   0.27572   0.28012
 Alpha virt. eigenvalues --    0.29482   0.30960   0.31411   0.31755   0.31866

 Mulliken charges:
               1
     1  C   -0.170829
     2  C   -0.220769
     3  C   -0.174436
     4  C    0.158205
     5  C   -0.170225
     6  C   -0.218905
     7  H    0.225776
     8  H    0.223663
     9  H    0.282000
    10  H    0.275691
    11  H    0.223572
    12  N    0.488022
    13  O   -0.460630
    14  O   -0.460124
    15  C   -0.298619
    16  C   -0.300852
    17  C   -0.476125
    18  H    0.146754
    19  H    0.152449
    20  H    0.147406
    21  H    0.160102
    22  H    0.156241
    23  H    0.153326
    24  H    0.163669
    25  C   -0.301974
    26  C   -0.299763
    27  C   -0.477377
    28  H    0.138786
    29  H    0.158604
    30  H    0.148445
    31  H    0.155203
    32  H    0.159589
    33  H    0.152612
    34  H    0.160513
 Sum of Mulliken charges =  -0.00000

 Dipole moment (field-independent basis, Debye):
    X=              0.1047    Y=              4.2788    Z=             -2.7275  Tot=              5.0753
 Quadrupole moment (field-independent basis, Debye-Ang):
   XX=            -89.9177   YY=            -99.3801   ZZ=            -94.6760
   XY=            -11.5645   XZ=              7.3523   YZ=              0.5720

 Normal termination of Gaussian 16 at Thu May  6 20:41:49 2021.
