 Gaussian 16, Revision A.03,
 Gaussian 16:  EM64L-G16RevA.03 25-Dec-2016

 -------------
 #p 6-31g* mp2
 -------------

 ------------------------------------------------------
 Input file generated by CHIRIPA (05-May-2021 14:55:21)
 ------------------------------------------------------
 Symbolic Z-matrix:
 Charge =  0 Multiplicity = 1

                         Standard orientation:
 ---------------------------------------------------------------------
 Center     Atomic      Atomic             Coordinates (Angstroms)
 Number     Number       Type             X           Y           Z
 ---------------------------------------------------------------------
      1          6           0       -2.173756    2.342195    0.714270
      2          6           0       -3.246010    1.621282    1.250066
      3          6           0       -3.497139    0.309685    0.836307
      4          6           0       -2.652149   -0.252525   -0.119309
      5          6           0       -1.575829    0.439958   -0.671842
      6          6           0       -1.343551    1.750276   -0.243285
      7          1           0       -1.985995    3.360579    1.041436
      8          1           0       -3.892407    2.078427    1.993862
      9          1           0       -4.320176   -0.271171    1.234595
     10          1           0       -0.948851   -0.042581   -1.411756
     11          1           0       -0.510085    2.307763   -0.661121
     12          7           0       -2.908029   -1.640377   -0.565170
     13          8           0       -2.148916   -2.113031   -1.408368
     14          8           0       -3.862857   -2.229243   -0.062995
     15          6           0        3.413175    0.624740   -0.415697
     16          6           0        2.693111    1.881955    0.073081
     17          6           0        2.847182    3.062260   -0.886572
     18          1           0        4.479489    0.850652   -0.553112
     19          1           0        3.022352    0.347875   -1.404635
     20          1           0        3.084203    2.155570    1.061413
     21          1           0        1.628422    1.652973    0.209533
     22          1           0        2.439641    2.813476   -1.871772
     23          1           0        3.903693    3.318929   -1.015051
     24          1           0        2.324709    3.950422   -0.517720
     25          6           0        3.268365   -0.563836    0.533011
     26          6           0        3.988428   -1.821051    0.044232
     27          6           0        3.834359   -3.001356    1.003886
     28          1           0        3.659188   -0.286971    1.521949
     29          1           0        2.202052   -0.789747    0.670427
     30          1           0        5.053118   -1.592069   -0.092220
     31          1           0        3.597338   -2.094666   -0.944100
     32          1           0        2.777847   -3.258026    1.132365
     33          1           0        4.241900   -2.752573    1.989085
     34          1           0        4.356831   -3.889518    0.635034
 ---------------------------------------------------------------------

 SCF Done:  E(RHF) =  -669.535423450     A.U. after   15 cycles
 E2 =    -0.2091973412D+01 EUMP2 =    -0.67162739686148D+03

 The electronic state is 1-A.
 Alpha  occ. eigenvalues --  -20.60812 -20.60807 -15.85866 -11.31240 -11.27816
 Alpha  occ. eigenvalues --  -11.27808 -11.27542 -11.26820 -11.26788 -11.22263
 Alpha  occ. eigenvalues --  -11.21902 -11.21834 -11.21679 -11.21599 -11.21015
 Alpha  occ. eigenvalues --   -1.59888  -1.39441  -1.19414  -1.08827  -1.08788
 Alpha  occ. eigenvalues --   -1.04821  -1.03913  -0.96360  -0.95637  -0.87373
 Alpha  occ. eigenvalues --   -0.86214  -0.82474  -0.80002  -0.78570  -0.77516
 Alpha  occ. eigenvalues --   -0.72083  -0.71211  -0.70514  -0.65529  -0.65061
 Alpha  occ. eigenvalues --   -0.64789  -0.62222  -0.61248  -0.59768  -0.57950
 Alpha  occ. eigenvalues --   -0.55655  -0.55300  -0.53160  -0.53059  -0.52896
 Alpha  occ. eigenvalues --   -0.52768  -0.50300  -0.48846  -0.48839  -0.48291
 Alpha  occ. eigenvalues --   -0.47032  -0.46111  -0.46008  -0.44845  -0.44150
 Alpha  occ. eigenvalues --   -0.37382  -0.36393
 Alpha virt. eigenvalues --    0.04998   0.11159   0.16368   0.19756   0.22968
 Alpha virt. eigenvalues --    0.23718   0.26006   0.26764   0.27179   0.28546
 Alpha virt. eigenvalues --    0.29019   0.30798   0.31159   0.31452   0.32100

 Mulliken charges:
               1
     1  C   -0.172328
     2  C   -0.218424
     3  C   -0.170614
     4  C    0.158677
     5  C   -0.172999
     6  C   -0.219719
     7  H    0.226273
     8  H    0.223724
     9  H    0.275849
    10  H    0.275509
    11  H    0.229709
    12  N    0.488099
    13  O   -0.460624
    14  O   -0.460157
    15  C   -0.298026
    16  C   -0.307101
    17  C   -0.478167
    18  H    0.151754
    19  H    0.148537
    20  H    0.154904
    21  H    0.149102
    22  H    0.153095
    23  H    0.161146
    24  H    0.155976
    25  C   -0.299192
    26  C   -0.300196
    27  C   -0.476510
    28  H    0.149674
    29  H    0.151394
    30  H    0.151355
    31  H    0.154472
    32  H    0.159082
    33  H    0.154003
    34  H    0.161723
 Sum of Mulliken charges =  -0.00000

 Dipole moment (field-independent basis, Debye):
    X=              0.9508    Y=              4.8175    Z=              1.6096  Tot=              5.1675
 Quadrupole moment (field-independent basis, Debye-Ang):
   XX=            -95.5587   YY=            -98.6112   ZZ=            -93.8913
   XY=            -12.9951   XZ=             -6.7621   YZ=             -0.3655

 Normal termination of Gaussian 16 at Thu May  6 07:47:27 2021.
