 Gaussian 16, Revision A.03,
 Gaussian 16:  EM64L-G16RevA.03 25-Dec-2016

 -------------
 #p 6-31g* mp2
 -------------

 ------------------------------------------------------
 Input file generated by CHIRIPA (05-May-2021 14:51:09)
 ------------------------------------------------------
 Symbolic Z-matrix:
 Charge =  0 Multiplicity = 1

                         Standard orientation:
 ---------------------------------------------------------------------
 Center     Atomic      Atomic             Coordinates (Angstroms)
 Number     Number       Type             X           Y           Z
 ---------------------------------------------------------------------
      1          6           0        2.018385    0.714994    0.174079
      2          6           0        2.566203    1.186930    1.521356
      3          6           0        2.146231    2.617083    1.862063
      4          1           0        2.363582    1.397724   -0.614378
      5          1           0        0.921742    0.782626    0.188040
      6          1           0        3.661414    1.117120    1.505345
      7          1           0        2.219819    0.502888    2.306672
      8          1           0        1.055300    2.698246    1.905457
      9          1           0        2.505086    3.315968    1.099577
     10          1           0        2.548751    2.934093    2.829194
     11          6           0        2.429661   -0.712884   -0.180527
     12          6           0        1.881843   -1.184820   -1.527805
     13          6           0        2.301815   -2.614973   -1.868511
     14          1           0        3.526304   -0.780516   -0.194488
     15          1           0        2.084464   -1.395614    0.607929
     16          1           0        2.228227   -0.500778   -2.313120
     17          1           0        0.786633   -1.115010   -1.511793
     18          1           0        1.942961   -3.313858   -1.106025
     19          1           0        3.392746   -2.696136   -1.911905
     20          1           0        1.899296   -2.931983   -2.835642
     21          6           0       -2.073748   -0.732267    0.165022
     22          6           0       -2.483114   -1.136324    1.581758
     23          6           0       -2.176101   -2.602011    1.890466
     24          1           0       -2.592339   -1.377086   -0.557623
     25          1           0       -0.998650   -0.918037    0.034450
     26          1           0       -3.556843   -0.948553    1.710067
     27          1           0       -1.963635   -0.490342    2.301107
     28          1           0       -1.104126   -2.800486    1.790074
     29          1           0       -2.706387   -3.261300    1.195675
     30          1           0       -2.476777   -2.869419    2.908281
     31          6           0       -2.374299    0.730157   -0.158573
     32          6           0       -1.964933    1.134214   -1.575310
     33          6           0       -2.271945    2.599900   -1.884018
     34          1           0       -3.449397    0.915926   -0.028002
     35          1           0       -1.855708    1.374976    0.564072
     36          1           0       -2.484411    0.488231   -2.294660
     37          1           0       -0.891203    0.946443   -1.703618
     38          1           0       -1.741659    3.259190   -1.189227
     39          1           0       -3.343920    2.798376   -1.783626
     40          1           0       -1.971268    2.867309   -2.901832
 ---------------------------------------------------------------------

 SCF Done:  E(RHF) =  -470.732502304     A.U. after   11 cycles
 E2 =    -0.1585527921D+01 EUMP2 =    -0.47231803022506D+03

 The electronic state is 1-A.
 Alpha  occ. eigenvalues --  -11.21670 -11.21665 -11.21606 -11.21580 -11.21471
 Alpha  occ. eigenvalues --  -11.21454 -11.21412 -11.21395 -11.21143 -11.21137
 Alpha  occ. eigenvalues --  -11.21085 -11.21059  -1.08569  -1.08420  -1.03582
 Alpha  occ. eigenvalues --   -1.03561  -0.96043  -0.96010  -0.87058  -0.87024
 Alpha  occ. eigenvalues --   -0.79660  -0.79624  -0.78493  -0.78146  -0.65606
 Alpha  occ. eigenvalues --   -0.64689  -0.61028  -0.60928  -0.59420  -0.59365
 Alpha  occ. eigenvalues --   -0.57641  -0.57626  -0.55408  -0.55229  -0.52742
 Alpha  occ. eigenvalues --   -0.52686  -0.52466  -0.52435  -0.50038  -0.49913
 Alpha  occ. eigenvalues --   -0.47992  -0.47952  -0.46842  -0.46664  -0.46406
 Alpha  occ. eigenvalues --   -0.45817  -0.45790  -0.44935  -0.43839  -0.43810
 Alpha virt. eigenvalues --    0.19388   0.22188   0.23477   0.24373   0.25652
 Alpha virt. eigenvalues --    0.26403   0.26934   0.27654   0.28259   0.30823
 Alpha virt. eigenvalues --    0.31011   0.31683   0.31742   0.31884   0.32348

 Mulliken charges:
               1
     1  C   -0.307179
     2  C   -0.299271
     3  C   -0.476075
     4  H    0.149935
     5  H    0.157708
     6  H    0.152444
     7  H    0.151792
     8  H    0.154514
     9  H    0.155567
    10  H    0.160754
    11  C   -0.298319
    12  C   -0.309046
    13  C   -0.475209
    14  H    0.150292
    15  H    0.148806
    16  H    0.151925
    17  H    0.160892
    18  H    0.155118
    19  H    0.155178
    20  H    0.160592
    21  C   -0.308009
    22  C   -0.299015
    23  C   -0.475744
    24  H    0.149966
    25  H    0.158044
    26  H    0.152454
    27  H    0.151469
    28  H    0.154340
    29  H    0.155580
    30  H    0.160646
    31  C   -0.299300
    32  C   -0.306638
    33  C   -0.475511
    34  H    0.150422
    35  H    0.149066
    36  H    0.151655
    37  H    0.159369
    38  H    0.155446
    39  H    0.154997
    40  H    0.160343
 Sum of Mulliken charges =  -0.00000

 Dipole moment (field-independent basis, Debye):
    X=              0.0054    Y=             -0.0030    Z=             -0.0152  Tot=              0.0164
 Quadrupole moment (field-independent basis, Debye-Ang):
   XX=            -83.2707   YY=            -86.6987   ZZ=            -84.7268
   XY=              1.0091   XZ=             -0.0465   YZ=             -0.0756

 Normal termination of Gaussian 16 at Wed May  5 15:09:39 2021.
