 Gaussian 16, Revision A.03,
 Gaussian 16:  EM64L-G16RevA.03 25-Dec-2016

 -------------
 #p 6-31g* mp2
 -------------

 ------------------------------------------------------
 Input file generated by CHIRIPA (05-May-2021 14:57:24)
 ------------------------------------------------------
 Symbolic Z-matrix:
 Charge =  0 Multiplicity = 1

                         Standard orientation:
 ---------------------------------------------------------------------
 Center     Atomic      Atomic             Coordinates (Angstroms)
 Number     Number       Type             X           Y           Z
 ---------------------------------------------------------------------
      1          6           0       -3.768529    2.613047    0.576414
      2          6           0       -4.994078    1.962552    0.399193
      3          6           0       -5.036177    0.601959    0.080501
      4          6           0       -3.828112   -0.080520   -0.054012
      5          6           0       -2.591237    0.539492    0.116322
      6          6           0       -2.573128    1.900697    0.434662
      7          1           0       -3.745144    3.670226    0.823845
      8          1           0       -5.924020    2.513251    0.508657
      9          1           0       -5.970986    0.073579   -0.062200
     10          1           0       -1.680846   -0.036032    0.000655
     11          1           0       -1.619886    2.403283    0.571718
     12          7           0       -3.859982   -1.521242   -0.391211
     13          8           0       -2.781643   -2.100084   -0.504189
     14          8           0       -4.962697   -2.044359   -0.536144
     15          6           0        2.116162   -1.956187    0.462956
     16          6           0        1.751374   -0.814894   -0.258778
     17          6           0        2.688722    0.188410   -0.522036
     18          6           0        3.987857    0.017017   -0.046470
     19          6           0        4.381923   -1.108532    0.675432
     20          6           0        3.427960   -2.099111    0.926940
     21          1           0        1.381555   -2.730635    0.662897
     22          1           0        0.733340   -0.701216   -0.620343
     23          1           0        2.433331    1.082152   -1.078291
     24          1           0        5.404391   -1.193595    1.022907
     25          1           0        3.714091   -2.984386    1.487710
     26          7           0        4.988981    1.072434   -0.318951
     27          8           0        6.127068    0.897580    0.110956
     28          8           0        4.616617    2.054542   -0.957268
 ---------------------------------------------------------------------

 SCF Done:  E(RHF) =  -868.338320586     A.U. after   16 cycles
 E2 =    -0.2599093653D+01 EUMP2 =    -0.87093741423894D+03

 The electronic state is 1-A.
 Alpha  occ. eigenvalues --  -20.61551 -20.61504 -20.60886 -20.60875 -15.86580
 Alpha  occ. eigenvalues --  -15.85938 -11.31859 -11.31266 -11.28500 -11.28353
 Alpha  occ. eigenvalues --  -11.28065 -11.27891 -11.27825 -11.27485 -11.27397
 Alpha  occ. eigenvalues --  -11.27341 -11.26867 -11.26774  -1.60598  -1.59960
 Alpha  occ. eigenvalues --   -1.40160  -1.39515  -1.20003  -1.19436  -1.09399
 Alpha  occ. eigenvalues --   -1.08811  -1.05401  -1.04849  -0.96262  -0.95654
 Alpha  occ. eigenvalues --   -0.86799  -0.86230  -0.83104  -0.82504  -0.78186
 Alpha  occ. eigenvalues --   -0.77574  -0.72805  -0.72154  -0.71912  -0.71285
 Alpha  occ. eigenvalues --   -0.71113  -0.70479  -0.65656  -0.65422  -0.65079
 Alpha  occ. eigenvalues --   -0.64836  -0.62794  -0.62170  -0.55869  -0.55253
 Alpha  occ. eigenvalues --   -0.53716  -0.53522  -0.53160  -0.52900  -0.49575
 Alpha  occ. eigenvalues --   -0.49534  -0.48915  -0.48907  -0.45584  -0.44930
 Alpha  occ. eigenvalues --   -0.37946  -0.37372  -0.36995  -0.36467
 Alpha virt. eigenvalues --    0.04365   0.04980   0.10658   0.11148   0.15903
 Alpha virt. eigenvalues --    0.16454   0.18864   0.21987   0.24785   0.27210
 Alpha virt. eigenvalues --    0.28287   0.29137   0.30065   0.31034   0.32040

 Mulliken charges:
               1
     1  C   -0.169967
     2  C   -0.218227
     3  C   -0.169655
     4  C    0.159108
     5  C   -0.176123
     6  C   -0.220372
     7  H    0.229069
     8  H    0.226161
     9  H    0.277251
    10  H    0.272804
    11  H    0.225698
    12  N    0.487974
    13  O   -0.468375
    14  O   -0.456012
    15  C   -0.171936
    16  C   -0.226919
    17  C   -0.173127
    18  C    0.158506
    19  C   -0.170481
    20  C   -0.219073
    21  H    0.235434
    22  H    0.228275
    23  H    0.272696
    24  H    0.275935
    25  H    0.225152
    26  N    0.488169
    27  O   -0.459780
    28  O   -0.462186
 Sum of Mulliken charges =  -0.00000

 Dipole moment (field-independent basis, Debye):
    X=             -3.6120    Y=              1.3429    Z=              2.2303  Tot=              4.4524
 Quadrupole moment (field-independent basis, Debye-Ang):
   XX=           -125.5251   YY=           -104.8414   ZZ=           -105.3734
   XY=            -37.6008   XZ=              1.4952   YZ=             -1.6691

 Normal termination of Gaussian 16 at Fri May  7 01:53:40 2021.
