 Gaussian 16, Revision A.03,
 Gaussian 16:  EM64L-G16RevA.03 25-Dec-2016

 -------------
 #p 6-31g* mp2
 -------------

 ------------------------------------------------------
 Input file generated by CHIRIPA (05-May-2021 14:53:16)
 ------------------------------------------------------
 Symbolic Z-matrix:
 Charge =  0 Multiplicity = 1

                         Standard orientation:
 ---------------------------------------------------------------------
 Center     Atomic      Atomic             Coordinates (Angstroms)
 Number     Number       Type             X           Y           Z
 ---------------------------------------------------------------------
      1          6           0        3.280566   -0.491735   -0.373318
      2          6           0        2.517832   -1.468118    0.522728
      3          6           0        1.367774   -2.164084   -0.205827
      4          1           0        2.581773    0.261492   -0.762266
      5          1           0        3.672297   -1.034257   -1.244875
      6          1           0        2.128834   -0.924190    1.393037
      7          1           0        3.218559   -2.218996    0.909741
      8          1           0        1.742513   -2.731359   -1.063947
      9          1           0        0.646595   -1.429196   -0.577905
     10          1           0        0.836145   -2.857515    0.453252
     11          6           0        4.433277    0.211856    0.340786
     12          6           0        5.196011    1.188239   -0.555260
     13          6           0        6.346069    1.884204    0.173294
     14          1           0        4.041546    0.754378    1.212343
     15          1           0        5.132071   -0.541371    0.729734
     16          1           0        4.495284    1.939117   -0.942274
     17          1           0        5.585010    0.644311   -1.425570
     18          1           0        7.067248    1.149316    0.545373
     19          1           0        5.971331    2.451479    1.031415
     20          1           0        6.877698    2.577636   -0.485784
     21          6           0       -4.019143    2.423198    0.019579
     22          6           0       -3.659620    1.812624    1.225590
     23          6           0       -3.101456    0.530854    1.233752
     24          6           0       -2.915971   -0.114368    0.012043
     25          6           0       -3.263932    0.467464   -1.206022
     26          6           0       -3.820502    1.749857   -1.190245
     27          1           0       -4.452119    3.419149    0.022536
     28          1           0       -3.812739    2.333178    2.166666
     29          1           0       -2.814089    0.034789    2.152860
     30          1           0       -3.099185   -0.076440   -2.128217
     31          1           0       -4.098765    2.221586   -2.128374
     32          7           0       -2.325911   -1.471650    0.008013
     33          8           0       -2.172724   -2.018993   -1.081751
     34          8           0       -2.027784   -1.962445    1.094696
 ---------------------------------------------------------------------

 SCF Done:  E(RHF) =  -669.535708365     A.U. after   15 cycles
 E2 =    -0.2091811624D+01 EUMP2 =    -0.67162751998910D+03

 The electronic state is 1-A.
 Alpha  occ. eigenvalues --  -20.60889 -20.60883 -15.85891 -11.31268 -11.27834
 Alpha  occ. eigenvalues --  -11.27830 -11.27576 -11.26847 -11.26837 -11.21276
 Alpha  occ. eigenvalues --  -11.20926 -11.20828 -11.20746 -11.20650 -11.19636
 Alpha  occ. eigenvalues --   -1.59935  -1.39491  -1.19438  -1.08835  -1.07846
 Alpha  occ. eigenvalues --   -1.04839  -1.02843  -0.95675  -0.95255  -0.86268
 Alpha  occ. eigenvalues --   -0.86237  -0.82504  -0.78937  -0.77631  -0.77552
 Alpha  occ. eigenvalues --   -0.72127  -0.71268  -0.70545  -0.65092  -0.64841
 Alpha  occ. eigenvalues --   -0.64491  -0.62185  -0.60255  -0.58681  -0.56854
 Alpha  occ. eigenvalues --   -0.55343  -0.54571  -0.53172  -0.52930  -0.51896
 Alpha  occ. eigenvalues --   -0.51687  -0.49288  -0.48888  -0.48810  -0.47239
 Alpha  occ. eigenvalues --   -0.46007  -0.45209  -0.45098  -0.44803  -0.43058
 Alpha  occ. eigenvalues --   -0.37417  -0.36442
 Alpha virt. eigenvalues --    0.04956   0.11211   0.16433   0.21349   0.23372
 Alpha virt. eigenvalues --    0.25017   0.27159   0.27264   0.28006   0.28180
 Alpha virt. eigenvalues --    0.28785   0.30897   0.32008   0.32274   0.32479

 Mulliken charges:
               1
     1  C   -0.296840
     2  C   -0.301396
     3  C   -0.471981
     4  H    0.145985
     5  H    0.148923
     6  H    0.148681
     7  H    0.149225
     8  H    0.150940
     9  H    0.149277
    10  H    0.177771
    11  C   -0.297306
    12  C   -0.298901
    13  C   -0.475239
    14  H    0.147401
    15  H    0.149379
    16  H    0.149922
    17  H    0.151794
    18  H    0.155226
    19  H    0.153922
    20  H    0.158709
    21  C   -0.170693
    22  C   -0.218600
    23  C   -0.170960
    24  C    0.158057
    25  C   -0.171197
    26  C   -0.218577
    27  H    0.225903
    28  H    0.223719
    29  H    0.275760
    30  H    0.276022
    31  H    0.223792
    32  N    0.487687
    33  O   -0.457613
    34  O   -0.458792
 Sum of Mulliken charges =  -0.00000

 Dipole moment (field-independent basis, Debye):
    X=             -2.3309    Y=              4.6550    Z=              0.0293  Tot=              5.2060
 Quadrupole moment (field-independent basis, Debye-Ang):
   XX=            -84.5088   YY=            -95.9639   ZZ=            -89.8875
   XY=            -15.1346   XZ=             -0.1731   YZ=              0.1545

 Normal termination of Gaussian 16 at Thu May  6 07:30:45 2021.
