 Gaussian 16, Revision A.03,
 Gaussian 16:  EM64L-G16RevA.03 25-Dec-2016

 -------------
 #p 6-31g* mp2
 -------------

 ------------------------------------------------------
 Input file generated by CHIRIPA (05-May-2021 14:51:11)
 ------------------------------------------------------
 Symbolic Z-matrix:
 Charge =  0 Multiplicity = 1

                         Standard orientation:
 ---------------------------------------------------------------------
 Center     Atomic      Atomic             Coordinates (Angstroms)
 Number     Number       Type             X           Y           Z
 ---------------------------------------------------------------------
      1          6           0       -4.421629   -0.599587    0.090944
      2          6           0       -5.551034    0.070150   -0.692563
      3          6           0       -6.717120   -0.877504   -0.975387
      4          1           0       -4.059736   -1.470729   -0.472164
      5          1           0       -4.820919   -0.984453    1.039543
      6          1           0       -5.149436    0.454856   -1.638785
      7          1           0       -5.910150    0.939911   -0.127615
      8          1           0       -7.144815   -1.252020   -0.039750
      9          1           0       -6.379778   -1.739830   -1.559507
     10          1           0       -7.513233   -0.378193   -1.536414
     11          6           0       -3.248689    0.335069    0.381389
     12          6           0       -2.119285   -0.334667    1.164896
     13          6           0       -0.953199    0.612987    1.447720
     14          1           0       -2.849399    0.719935   -0.567210
     15          1           0       -3.610582    1.206211    0.944497
     16          1           0       -1.760168   -1.204428    0.599948
     17          1           0       -2.520882   -0.719374    2.111118
     18          1           0       -1.290540    1.475312    2.031839
     19          1           0       -0.525504    0.987502    0.512083
     20          1           0       -0.157085    0.113675    2.008747
     21          6           0        3.803913    0.828919   -0.547807
     22          6           0        2.767657    1.741233    0.109340
     23          6           0        2.717009    3.131461   -0.525084
     24          1           0        4.793780    1.300658   -0.480209
     25          1           0        3.574258    0.736292   -1.618355
     26          1           0        2.998394    1.831002    1.178601
     27          1           0        1.780172    1.267179    0.040340
     28          1           0        2.464195    3.060897   -1.587961
     29          1           0        3.689339    3.627924   -0.443232
     30          1           0        1.969632    3.767104   -0.040063
     31          6           0        3.866405   -0.564402    0.075474
     32          6           0        4.902661   -1.476715   -0.581673
     33          6           0        4.953310   -2.866944    0.052751
     34          1           0        4.096060   -0.471773    1.146023
     35          1           0        2.876538   -1.036141    0.007877
     36          1           0        5.890146   -1.002661   -0.512673
     37          1           0        4.671924   -1.566485   -1.650934
     38          1           0        3.980980   -3.363406   -0.029101
     39          1           0        5.206123   -2.796380    1.115628
     40          1           0        5.700686   -3.502587   -0.432269
 ---------------------------------------------------------------------

 SCF Done:  E(RHF) =  -470.733095858     A.U. after   11 cycles
 E2 =    -0.1582561597D+01 EUMP2 =    -0.47231565745425D+03

 The electronic state is 1-A.
 Alpha  occ. eigenvalues --  -11.21618 -11.21615 -11.21583 -11.21481 -11.21424
 Alpha  occ. eigenvalues --  -11.21366 -11.21364 -11.21302 -11.21083 -11.21070
 Alpha  occ. eigenvalues --  -11.21060 -11.21015  -1.08450  -1.08385  -1.03555
 Alpha  occ. eigenvalues --   -1.03477  -0.96002  -0.95935  -0.87029  -0.86944
 Alpha  occ. eigenvalues --   -0.79675  -0.79489  -0.78275  -0.78179  -0.65111
 Alpha  occ. eigenvalues --   -0.64998  -0.61043  -0.60807  -0.59378  -0.59291
 Alpha  occ. eigenvalues --   -0.57630  -0.57526  -0.55333  -0.55194  -0.52716
 Alpha  occ. eigenvalues --   -0.52614  -0.52426  -0.52357  -0.50047  -0.49818
 Alpha  occ. eigenvalues --   -0.47992  -0.47805  -0.46790  -0.46442  -0.45850
 Alpha  occ. eigenvalues --   -0.45760  -0.45704  -0.45517  -0.43795  -0.43728
 Alpha virt. eigenvalues --    0.21950   0.23079   0.23759   0.24611   0.26135
 Alpha virt. eigenvalues --    0.26793   0.26958   0.27408   0.27966   0.29162
 Alpha virt. eigenvalues --    0.30499   0.31490   0.31663   0.31974   0.32056

 Mulliken charges:
               1
     1  C   -0.298275
     2  C   -0.299664
     3  C   -0.475715
     4  H    0.149564
     5  H    0.149625
     6  H    0.151900
     7  H    0.152002
     8  H    0.155224
     9  H    0.155162
    10  H    0.160305
    11  C   -0.298512
    12  C   -0.299636
    13  C   -0.479302
    14  H    0.149469
    15  H    0.149778
    16  H    0.151526
    17  H    0.152060
    18  H    0.155363
    19  H    0.158235
    20  H    0.161670
    21  C   -0.297728
    22  C   -0.306614
    23  C   -0.475772
    24  H    0.149329
    25  H    0.148841
    26  H    0.151629
    27  H    0.160313
    28  H    0.154332
    29  H    0.154962
    30  H    0.160495
    31  C   -0.298361
    32  C   -0.299571
    33  C   -0.475672
    34  H    0.149403
    35  H    0.149539
    36  H    0.151968
    37  H    0.151764
    38  H    0.155033
    39  H    0.155152
    40  H    0.160179
 Sum of Mulliken charges =  -0.00000

 Dipole moment (field-independent basis, Debye):
    X=             -0.0300    Y=              0.0016    Z=              0.0200  Tot=              0.0361
 Quadrupole moment (field-independent basis, Debye-Ang):
   XX=            -85.0863   YY=            -86.0761   ZZ=            -83.7617
   XY=             -0.2819   XZ=             -0.2031   YZ=              0.7188

 Normal termination of Gaussian 16 at Wed May  5 15:14:42 2021.
