 Gaussian 16, Revision A.03,
 Gaussian 16:  EM64L-G16RevA.03 25-Dec-2016

 -------------
 #p 6-31g* mp2
 -------------

 ------------------------------------------------------
 Input file generated by CHIRIPA (05-May-2021 14:57:24)
 ------------------------------------------------------
 Symbolic Z-matrix:
 Charge =  0 Multiplicity = 1

                         Standard orientation:
 ---------------------------------------------------------------------
 Center     Atomic      Atomic             Coordinates (Angstroms)
 Number     Number       Type             X           Y           Z
 ---------------------------------------------------------------------
      1          6           0        4.289633   -2.342519    0.077131
      2          6           0        5.197678   -1.345446   -0.294111
      3          6           0        4.815241   -0.000720   -0.293066
      4          6           0        3.511019    0.312657    0.086528
      5          6           0        2.583301   -0.657893    0.461578
      6          6           0        2.987638   -1.996171    0.453128
      7          1           0        4.595225   -3.384630    0.073443
      8          1           0        6.209473   -1.611493   -0.586576
      9          1           0        5.497915    0.791350   -0.575906
     10          1           0        1.581528   -0.361792    0.748268
     11          1           0        2.280310   -2.768397    0.741918
     12          7           0        3.094558    1.732845    0.091553
     13          8           0        1.939768    1.982850    0.430072
     14          8           0        3.930811    2.569093   -0.243122
     15          6           0       -6.092521   -0.120070    0.137277
     16          6           0       -5.408199    1.099724    0.155416
     17          6           0       -4.015986    1.134679    0.032662
     18          6           0       -3.336723   -0.074583   -0.107256
     19          6           0       -3.990042   -1.305840   -0.128927
     20          6           0       -5.382510   -1.316849   -0.004587
     21          1           0       -7.174124   -0.137923    0.233251
     22          1           0       -5.957001    2.030720    0.265458
     23          1           0       -3.461071    2.064931    0.043528
     24          1           0       -3.415548   -2.217451   -0.240012
     25          1           0       -5.911328   -2.265631   -0.019008
     26          7           0       -1.862714   -0.050254   -0.238050
     27          8           0       -1.287433   -1.129504   -0.360144
     28          8           0       -1.310577    1.047606   -0.215996
 ---------------------------------------------------------------------

 SCF Done:  E(RHF) =  -868.338562785     A.U. after   16 cycles
 E2 =    -0.2600080397D+01 EUMP2 =    -0.87093864318150D+03

 The electronic state is 1-A.
 Alpha  occ. eigenvalues --  -20.60967 -20.60842 -20.59376 -20.59270 -15.85900
 Alpha  occ. eigenvalues --  -15.84369 -11.31226 -11.29786 -11.27823 -11.27742
 Alpha  occ. eigenvalues --  -11.27529 -11.26813 -11.26763 -11.26498 -11.26261
 Alpha  occ. eigenvalues --  -11.26203 -11.25543 -11.25371  -1.59960  -1.58410
 Alpha  occ. eigenvalues --   -1.39507  -1.37950  -1.19394  -1.18005  -1.08801
 Alpha  occ. eigenvalues --   -1.07417  -1.04786  -1.03400  -0.95639  -0.94221
 Alpha  occ. eigenvalues --   -0.86187  -0.84810  -0.82467  -0.81036  -0.77526
 Alpha  occ. eigenvalues --   -0.76045  -0.72099  -0.71274  -0.70582  -0.70501
 Alpha  occ. eigenvalues --   -0.69738  -0.69131  -0.65044  -0.64790  -0.63656
 Alpha  occ. eigenvalues --   -0.63424  -0.62130  -0.60719  -0.55296  -0.53977
 Alpha  occ. eigenvalues --   -0.53122  -0.52876  -0.51764  -0.51502  -0.48916
 Alpha  occ. eigenvalues --   -0.48845  -0.47391  -0.47305  -0.44915  -0.43334
 Alpha  occ. eigenvalues --   -0.37376  -0.36387  -0.36053  -0.35004
 Alpha virt. eigenvalues --    0.04987   0.06462   0.11268   0.12634   0.16486
 Alpha virt. eigenvalues --    0.17901   0.21402   0.22702   0.27325   0.28266
 Alpha virt. eigenvalues --    0.28639   0.29656   0.30975   0.32164   0.32566

 Mulliken charges:
               1
     1  C   -0.171881
     2  C   -0.220095
     3  C   -0.172257
     4  C    0.155030
     5  C   -0.167946
     6  C   -0.220529
     7  H    0.220077
     8  H    0.217825
     9  H    0.271382
    10  H    0.292115
    11  H    0.223596
    12  N    0.486516
    13  O   -0.448459
    14  O   -0.470067
    15  C   -0.170554
    16  C   -0.218738
    17  C   -0.170512
    18  C    0.158606
    19  C   -0.171257
    20  C   -0.218644
    21  H    0.225826
    22  H    0.224812
    23  H    0.280196
    24  H    0.273000
    25  H    0.222761
    26  N    0.486819
    27  O   -0.473864
    28  O   -0.443758
 Sum of Mulliken charges =  -0.00000

 Dipole moment (field-independent basis, Debye):
    X=             -4.2858    Y=             -4.8380    Z=              0.4872  Tot=              6.4816
 Quadrupole moment (field-independent basis, Debye-Ang):
   XX=            -58.6449   YY=           -103.5658   ZZ=           -106.1849
   XY=            -15.5624   XZ=             -2.4962   YZ=             -0.5557

 Normal termination of Gaussian 16 at Fri May  7 06:30:24 2021.
