 Gaussian 16, Revision A.03,
 Gaussian 16:  EM64L-G16RevA.03 25-Dec-2016

 -------------
 #p 6-31g* mp2
 -------------

 ------------------------------------------------------
 Input file generated by CHIRIPA (05-May-2021 14:55:23)
 ------------------------------------------------------
 Symbolic Z-matrix:
 Charge =  0 Multiplicity = 1

                         Standard orientation:
 ---------------------------------------------------------------------
 Center     Atomic      Atomic             Coordinates (Angstroms)
 Number     Number       Type             X           Y           Z
 ---------------------------------------------------------------------
      1          6           0       -1.448259    2.383181   -0.113965
      2          6           0       -1.060190    1.347608   -0.970419
      3          6           0       -1.819292    0.176895   -1.058406
      4          6           0       -2.965858    0.074897   -0.272102
      5          6           0       -3.378579    1.089083    0.590671
      6          6           0       -2.604177    2.250847    0.662477
      7          1           0       -0.852628    3.289143   -0.051899
      8          1           0       -0.162962    1.447620   -1.574590
      9          1           0       -1.541873   -0.640322   -1.713092
     10          1           0       -4.277955    0.960296    1.180546
     11          1           0       -2.907968    3.053460    1.328486
     12          7           0       -3.777584   -1.159748   -0.356685
     13          8           0       -4.783509   -1.225048    0.346512
     14          8           0       -3.392519   -2.038783   -1.124578
     15          6           0        4.084879   -0.129328   -0.235650
     16          6           0        5.570255   -0.225136    0.114294
     17          6           0        6.477473    0.232478   -1.028220
     18          1           0        3.885436   -0.735975   -1.129601
     19          1           0        3.844445    0.909103   -0.502575
     20          1           0        5.807518   -1.262803    0.381817
     21          1           0        5.766150    0.381657    1.007628
     22          1           0        6.269519    1.274615   -1.291485
     23          1           0        6.311121   -0.379189   -1.920852
     24          1           0        7.534910    0.155704   -0.756575
     25          6           0        3.165234   -0.583327    0.896544
     26          6           0        1.679858   -0.487519    0.546599
     27          6           0        0.772640   -0.945134    1.689114
     28          1           0        3.405668   -1.621758    1.163469
     29          1           0        3.364678    0.023320    1.790495
     30          1           0        1.483964   -1.094312   -0.346734
     31          1           0        1.442595    0.550148    0.279076
     32          1           0        0.938991   -0.333466    2.581745
     33          1           0        0.980594   -1.987269    1.952379
     34          1           0       -0.284798   -0.868358    1.417469
 ---------------------------------------------------------------------

 SCF Done:  E(RHF) =  -669.534613571     A.U. after   15 cycles
 E2 =    -0.2093706713D+01 EUMP2 =    -0.67162832028447D+03

 The electronic state is 1-A.
 Alpha  occ. eigenvalues --  -20.60804 -20.60799 -15.85858 -11.31251 -11.27791
 Alpha  occ. eigenvalues --  -11.27779 -11.27532 -11.26826 -11.26790 -11.21976
 Alpha  occ. eigenvalues --  -11.21954 -11.21821 -11.21711 -11.21405 -11.21185
 Alpha  occ. eigenvalues --   -1.59880  -1.39432  -1.19419  -1.08833  -1.08777
 Alpha  occ. eigenvalues --   -1.04823  -1.03844  -0.96279  -0.95636  -0.87297
 Alpha  occ. eigenvalues --   -0.86213  -0.82467  -0.79941  -0.78653  -0.77496
 Alpha  occ. eigenvalues --   -0.72074  -0.71207  -0.70509  -0.65456  -0.65059
 Alpha  occ. eigenvalues --   -0.64804  -0.62164  -0.61252  -0.59696  -0.57962
 Alpha  occ. eigenvalues --   -0.55571  -0.55309  -0.53403  -0.52933  -0.52806
 Alpha  occ. eigenvalues --   -0.52456  -0.50223  -0.48839  -0.48828  -0.48245
 Alpha  occ. eigenvalues --   -0.46979  -0.46172  -0.46110  -0.44830  -0.44114
 Alpha  occ. eigenvalues --   -0.37367  -0.36342
 Alpha virt. eigenvalues --    0.05004   0.11150   0.16478   0.20804   0.22653
 Alpha virt. eigenvalues --    0.24033   0.25859   0.26117   0.27530   0.28184
 Alpha virt. eigenvalues --    0.28504   0.30651   0.31132   0.31333   0.32008

 Mulliken charges:
               1
     1  C   -0.172592
     2  C   -0.212029
     3  C   -0.173412
     4  C    0.159033
     5  C   -0.171841
     6  C   -0.217368
     7  H    0.225588
     8  H    0.225453
     9  H    0.275948
    10  H    0.275880
    11  H    0.223728
    12  N    0.487879
    13  O   -0.460148
    14  O   -0.460162
    15  C   -0.297923
    16  C   -0.299724
    17  C   -0.475853
    18  H    0.149576
    19  H    0.144281
    20  H    0.153948
    21  H    0.152162
    22  H    0.153769
    23  H    0.155714
    24  H    0.161647
    25  C   -0.298167
    26  C   -0.299396
    27  C   -0.477883
    28  H    0.152304
    29  H    0.149587
    30  H    0.148210
    31  H    0.145320
    32  H    0.153287
    33  H    0.157957
    34  H    0.165224
 Sum of Mulliken charges =  -0.00000

 Dipole moment (field-independent basis, Debye):
    X=              2.8315    Y=              4.3310    Z=              0.3155  Tot=              5.1840
 Quadrupole moment (field-independent basis, Debye-Ang):
   XX=           -110.6520   YY=            -93.0800   ZZ=            -93.5044
   XY=            -14.5805   XZ=             -3.5441   YZ=              0.8444

 Normal termination of Gaussian 16 at Thu May  6 04:42:01 2021.
