 Gaussian 16, Revision A.03,
 Gaussian 16:  EM64L-G16RevA.03 25-Dec-2016

 -------------
 #p 6-31g* mp2
 -------------

 ------------------------------------------------------
 Input file generated by CHIRIPA (05-May-2021 14:53:16)
 ------------------------------------------------------
 Symbolic Z-matrix:
 Charge =  0 Multiplicity = 1

                         Standard orientation:
 ---------------------------------------------------------------------
 Center     Atomic      Atomic             Coordinates (Angstroms)
 Number     Number       Type             X           Y           Z
 ---------------------------------------------------------------------
      1          6           0       -3.843109   -0.099129    0.126850
      2          6           0       -3.068055    1.194995   -0.123186
      3          6           0       -1.570664    1.049372    0.149596
      4          1           0       -3.687637   -0.417034    1.166904
      5          1           0       -3.429418   -0.894632   -0.508311
      6          1           0       -3.483985    1.988162    0.511246
      7          1           0       -3.225544    1.509959   -1.162710
      8          1           0       -1.135285    0.277409   -0.493148
      9          1           0       -1.395194    0.758330    1.190319
     10          1           0       -1.035907    1.986199   -0.035470
     11          6           0       -5.341403    0.030565   -0.141520
     12          6           0       -6.116457   -1.263559    0.108516
     13          6           0       -7.613848   -1.117936   -0.164265
     14          1           0       -5.755094    0.826068    0.493642
     15          1           0       -5.496874    0.348470   -1.181573
     16          1           0       -5.958968   -1.578523    1.148041
     17          1           0       -5.700527   -2.056727   -0.525916
     18          1           0       -7.789318   -0.826894   -1.204989
     19          1           0       -8.049227   -0.345973    0.478478
     20          1           0       -8.148605   -2.054763    0.020800
     21          6           0        1.948226    1.940441    0.132068
     22          6           0        2.470049    1.546207   -1.104379
     23          6           0        3.379120    0.487231   -1.186286
     24          6           0        3.746198   -0.158223   -0.006483
     25          6           0        3.243856    0.211146    1.240316
     26          6           0        2.336111    1.272830    1.298413
     27          1           0        1.242552    2.764130    0.186446
     28          1           0        2.170605    2.062860   -2.011819
     29          1           0        3.798594    0.161364   -2.130357
     30          1           0        3.561245   -0.323083    2.127605
     31          1           0        1.932481    1.576831    2.260032
     32          7           0        4.707889   -1.280746   -0.080591
     33          8           0        5.015338   -1.833179    0.973415
     34          8           0        5.136004   -1.586891   -1.191281
 ---------------------------------------------------------------------

 SCF Done:  E(RHF) =  -669.534847477     A.U. after   15 cycles
 E2 =    -0.2091600327D+01 EUMP2 =    -0.67162644780430D+03

 The electronic state is 1-A.
 Alpha  occ. eigenvalues --  -20.60723 -20.60718 -15.85778 -11.31125 -11.27713
 Alpha  occ. eigenvalues --  -11.27708 -11.27441 -11.26712 -11.26702 -11.22201
 Alpha  occ. eigenvalues --  -11.21899 -11.21851 -11.21845 -11.21743 -11.21323
 Alpha  occ. eigenvalues --   -1.59800  -1.39354  -1.19310  -1.08879  -1.08704
 Alpha  occ. eigenvalues --   -1.04712  -1.04004  -0.96474  -0.95538  -0.87489
 Alpha  occ. eigenvalues --   -0.86110  -0.82379  -0.80070  -0.78664  -0.77422
 Alpha  occ. eigenvalues --   -0.71997  -0.71124  -0.70452  -0.65502  -0.64963
 Alpha  occ. eigenvalues --   -0.64719  -0.62063  -0.61393  -0.59897  -0.58078
 Alpha  occ. eigenvalues --   -0.55739  -0.55271  -0.53392  -0.52883  -0.52806
 Alpha  occ. eigenvalues --   -0.52762  -0.50391  -0.48755  -0.48752  -0.48380
 Alpha  occ. eigenvalues --   -0.47089  -0.46213  -0.46122  -0.44764  -0.44265
 Alpha  occ. eigenvalues --   -0.37221  -0.36318
 Alpha virt. eigenvalues --    0.05105   0.11312   0.16551   0.20563   0.22567
 Alpha virt. eigenvalues --    0.23987   0.26197   0.26455   0.26953   0.27378
 Alpha virt. eigenvalues --    0.28447   0.30149   0.31034   0.31589   0.32533

 Mulliken charges:
               1
     1  C   -0.299034
     2  C   -0.300494
     3  C   -0.473063
     4  H    0.150223
     5  H    0.151395
     6  H    0.151350
     7  H    0.152104
     8  H    0.161248
     9  H    0.154650
    10  H    0.147079
    11  C   -0.298508
    12  C   -0.300025
    13  C   -0.475930
    14  H    0.149462
    15  H    0.149939
    16  H    0.152426
    17  H    0.152979
    18  H    0.155430
    19  H    0.155184
    20  H    0.161439
    21  C   -0.163798
    22  C   -0.220349
    23  C   -0.171076
    24  C    0.158179
    25  C   -0.170980
    26  C   -0.219346
    27  H    0.225859
    28  H    0.223049
    29  H    0.275324
    30  H    0.275354
    31  H    0.223245
    32  N    0.488118
    33  O   -0.460675
    34  O   -0.460759
 Sum of Mulliken charges =  -0.00000

 Dipole moment (field-independent basis, Debye):
    X=             -3.4945    Y=              3.9035    Z=              0.2580  Tot=              5.2455
 Quadrupole moment (field-independent basis, Debye-Ang):
   XX=           -121.9696   YY=            -96.7573   ZZ=            -88.9130
   XY=             15.5922   XZ=              0.4054   YZ=             -0.4439

 Normal termination of Gaussian 16 at Thu May  6 12:13:55 2021.
