 Gaussian 16, Revision A.03,
 Gaussian 16:  EM64L-G16RevA.03 25-Dec-2016

 -------------
 #p 6-31g* mp2
 -------------

 ------------------------------------------------------
 Input file generated by CHIRIPA (05-May-2021 14:57:23)
 ------------------------------------------------------
 Symbolic Z-matrix:
 Charge =  0 Multiplicity = 1

                         Standard orientation:
 ---------------------------------------------------------------------
 Center     Atomic      Atomic             Coordinates (Angstroms)
 Number     Number       Type             X           Y           Z
 ---------------------------------------------------------------------
      1          6           0       -1.343434   -2.209507    0.802059
      2          6           0       -2.289758   -1.596032    1.629490
      3          6           0       -3.088513   -0.555908    1.145052
      4          6           0       -2.913605   -0.152661   -0.177857
      5          6           0       -1.979432   -0.744014   -1.026922
      6          6           0       -1.191559   -1.782293   -0.521173
      7          1           0       -0.727169   -3.016784    1.186660
      8          1           0       -2.409888   -1.925741    2.657549
      9          1           0       -3.828777   -0.063447    1.763849
     10          1           0       -1.882670   -0.393518   -2.047317
     11          1           0       -0.457434   -2.256888   -1.166048
     12          7           0       -3.753450    0.947496   -0.701990
     13          8           0       -3.579946    1.284329   -1.871210
     14          8           0       -4.569323    1.452133    0.066340
     15          6           0        2.114520    2.635044    0.888056
     16          6           0        1.355557    1.520678    1.260460
     17          6           0        1.712287    0.240976    0.824965
     18          6           0        2.839059    0.111521    0.014463
     19          6           0        3.615476    1.202332   -0.373609
     20          6           0        3.240073    2.472600    0.073646
     21          1           0        1.830151    3.625483    1.230927
     22          1           0        0.480942    1.643837    1.892857
     23          1           0        1.142585   -0.638900    1.098236
     24          1           0        4.482116    1.047992   -1.004904
     25          1           0        3.831366    3.336231   -0.217144
     26          7           0        3.226598   -1.238249   -0.452801
     27          8           0        4.223692   -1.325647   -1.166103
     28          8           0        2.525917   -2.183242   -0.096892
 ---------------------------------------------------------------------

 SCF Done:  E(RHF) =  -868.339869079     A.U. after   16 cycles
 E2 =    -0.2601360825D+01 EUMP2 =    -0.87094122990487D+03

 The electronic state is 1-A.
 Alpha  occ. eigenvalues --  -20.61508 -20.61435 -20.61037 -20.61022 -15.86501
 Alpha  occ. eigenvalues --  -15.86080 -11.31526 -11.31433 -11.28076 -11.28016
 Alpha  occ. eigenvalues --  -11.28002 -11.27878 -11.27746 -11.27548 -11.27019
 Alpha  occ. eigenvalues --  -11.27006 -11.26982 -11.26763  -1.60537  -1.60110
 Alpha  occ. eigenvalues --   -1.40105  -1.39662  -1.19686  -1.19574  -1.09135
 Alpha  occ. eigenvalues --   -1.08958  -1.05040  -1.04933  -0.96029  -0.95788
 Alpha  occ. eigenvalues --   -0.86462  -0.86299  -0.82874  -0.82606  -0.77972
 Alpha  occ. eigenvalues --   -0.77670  -0.72741  -0.72290  -0.71849  -0.71439
 Alpha  occ. eigenvalues --   -0.70795  -0.70578  -0.65342  -0.65191  -0.65039
 Alpha  occ. eigenvalues --   -0.64843  -0.62416  -0.62241  -0.55559  -0.55342
 Alpha  occ. eigenvalues --   -0.53580  -0.53302  -0.52968  -0.52911  -0.49506
 Alpha  occ. eigenvalues --   -0.49442  -0.49054  -0.49045  -0.45576  -0.45070
 Alpha  occ. eigenvalues --   -0.37692  -0.37518  -0.36863  -0.36292
 Alpha virt. eigenvalues --    0.04510   0.04783   0.10715   0.11383   0.16068
 Alpha virt. eigenvalues --    0.16214   0.21082   0.21673   0.27049   0.27348
 Alpha virt. eigenvalues --    0.27783   0.28738   0.30905   0.31218   0.32424

 Mulliken charges:
               1
     1  C   -0.185868
     2  C   -0.221775
     3  C   -0.175777
     4  C    0.157883
     5  C   -0.172141
     6  C   -0.220620
     7  H    0.237960
     8  H    0.224113
     9  H    0.274694
    10  H    0.277117
    11  H    0.241396
    12  N    0.487715
    13  O   -0.459036
    14  O   -0.461624
    15  C   -0.168819
    16  C   -0.221856
    17  C   -0.170742
    18  C    0.154280
    19  C   -0.170085
    20  C   -0.219034
    21  H    0.228702
    22  H    0.225619
    23  H    0.276779
    24  H    0.275699
    25  H    0.225157
    26  N    0.488664
    27  O   -0.455831
    28  O   -0.472568
 Sum of Mulliken charges =  -0.00000

 Dipole moment (field-independent basis, Debye):
    X=              1.6747    Y=              0.8889    Z=              3.3769  Tot=              3.8727
 Quadrupole moment (field-independent basis, Debye-Ang):
   XX=           -126.8789   YY=           -102.3152   ZZ=           -101.0013
   XY=             26.3682   XZ=             -5.7025   YZ=              0.1484

 Normal termination of Gaussian 16 at Fri May  7 07:58:41 2021.
