 Gaussian 16, Revision A.03,
 Gaussian 16:  EM64L-G16RevA.03 25-Dec-2016

 -------------
 #p 6-31g* mp2
 -------------

 ------------------------------------------------------
 Input file generated by CHIRIPA (05-May-2021 14:51:09)
 ------------------------------------------------------
 Symbolic Z-matrix:
 Charge =  0 Multiplicity = 1

                         Standard orientation:
 ---------------------------------------------------------------------
 Center     Atomic      Atomic             Coordinates (Angstroms)
 Number     Number       Type             X           Y           Z
 ---------------------------------------------------------------------
      1          6           0       -2.113009   -0.439102   -0.423761
      2          6           0       -2.868372   -1.356371   -1.386065
      3          6           0       -2.072037   -2.607542   -1.757840
      4          1           0       -1.158115   -0.145368   -0.880753
      5          1           0       -1.863882   -1.000488    0.487379
      6          1           0       -3.117212   -0.793025   -2.294545
      7          1           0       -3.821665   -1.647801   -0.926809
      8          1           0       -1.836033   -3.193755   -0.863828
      9          1           0       -1.127577   -2.334122   -2.239336
     10          1           0       -2.630661   -3.249072   -2.446489
     11          6           0       -2.896170    0.815977   -0.042758
     12          6           0       -2.140808    1.733247    0.919546
     13          6           0       -2.937143    2.984417    1.291321
     14          1           0       -3.145298    1.377364   -0.953898
     15          1           0       -3.851065    0.522244    0.414234
     16          1           0       -1.187514    2.024677    0.460290
     17          1           0       -1.891968    1.169900    1.828026
     18          1           0       -3.881603    2.710998    1.772817
     19          1           0       -3.173146    3.570631    0.397309
     20          1           0       -2.378518    3.625948    1.979970
     21          6           0        2.579971   -0.876875    0.555447
     22          6           0        1.346644   -1.314625    1.346182
     23          6           0        1.512736   -2.693896    1.984789
     24          1           0        2.790423   -1.620914   -0.224977
     25          1           0        3.452035   -0.869847    1.223917
     26          1           0        0.476904   -1.319492    0.676746
     27          1           0        1.138990   -0.569359    2.124690
     28          1           0        2.362944   -2.699220    2.674514
     29          1           0        1.697095   -3.453615    1.218342
     30          1           0        0.619466   -2.987068    2.545127
     31          6           0        2.429208    0.499999   -0.088928
     32          6           0        3.662536    0.937749   -0.879663
     33          6           0        3.496443    2.317020   -1.518269
     34          1           0        1.557145    0.492971   -0.757398
     35          1           0        2.218757    1.244039    0.691496
     36          1           0        3.870189    0.192483   -1.658171
     37          1           0        4.532276    0.942615   -0.210226
     38          1           0        3.312085    3.076739   -0.751823
     39          1           0        2.646237    2.322344   -2.207995
     40          1           0        4.389713    2.610192   -2.078608
 ---------------------------------------------------------------------

 SCF Done:  E(RHF) =  -470.732595287     A.U. after   11 cycles
 E2 =    -0.1584447386D+01 EUMP2 =    -0.47231704267322D+03

 The electronic state is 1-A.
 Alpha  occ. eigenvalues --  -11.21649 -11.21601 -11.21579 -11.21426 -11.21409
 Alpha  occ. eigenvalues --  -11.21377 -11.21366 -11.21295 -11.21142 -11.21087
 Alpha  occ. eigenvalues --  -11.21063 -11.21005  -1.08485  -1.08365  -1.03561
 Alpha  occ. eigenvalues --   -1.03477  -0.96012  -0.95945  -0.87035  -0.86954
 Alpha  occ. eigenvalues --   -0.79672  -0.79525  -0.78515  -0.77963  -0.65110
 Alpha  occ. eigenvalues --   -0.65008  -0.60965  -0.60880  -0.59394  -0.59300
 Alpha  occ. eigenvalues --   -0.57641  -0.57540  -0.55319  -0.55218  -0.52715
 Alpha  occ. eigenvalues --   -0.52631  -0.52468  -0.52352  -0.49981  -0.49865
 Alpha  occ. eigenvalues --   -0.48086  -0.47815  -0.46749  -0.46617  -0.46310
 Alpha  occ. eigenvalues --   -0.45713  -0.45656  -0.44943  -0.43810  -0.43730
 Alpha virt. eigenvalues --    0.20860   0.23088   0.23384   0.24221   0.24925
 Alpha virt. eigenvalues --    0.26207   0.26937   0.27803   0.28491   0.30566
 Alpha virt. eigenvalues --    0.30864   0.31312   0.31461   0.31761   0.32018

 Mulliken charges:
               1
     1  C   -0.306039
     2  C   -0.298915
     3  C   -0.476995
     4  H    0.153350
     5  H    0.153878
     6  H    0.151873
     7  H    0.152157
     8  H    0.155880
     9  H    0.154445
    10  H    0.160972
    11  C   -0.297446
    12  C   -0.301230
    13  C   -0.475705
    14  H    0.149299
    15  H    0.149565
    16  H    0.153874
    17  H    0.152425
    18  H    0.155029
    19  H    0.155137
    20  H    0.160183
    21  C   -0.297688
    22  C   -0.309523
    23  C   -0.475530
    24  H    0.149075
    25  H    0.149004
    26  H    0.164888
    27  H    0.150831
    28  H    0.154776
    29  H    0.155018
    30  H    0.158743
    31  C   -0.301785
    32  C   -0.299551
    33  C   -0.475653
    34  H    0.151232
    35  H    0.150238
    36  H    0.151852
    37  H    0.152226
    38  H    0.155216
    39  H    0.154520
    40  H    0.160375
 Sum of Mulliken charges =  -0.00000

 Dipole moment (field-independent basis, Debye):
    X=             -0.0488    Y=              0.0061    Z=             -0.0151  Tot=              0.0514
 Quadrupole moment (field-independent basis, Debye-Ang):
   XX=            -84.7265   YY=            -86.2890   ZZ=            -83.9266
   XY=              0.8657   XZ=              0.1383   YZ=              0.2144

 Normal termination of Gaussian 16 at Thu May  6 02:09:13 2021.
