 Gaussian 16, Revision A.03,
 Gaussian 16:  EM64L-G16RevA.03 25-Dec-2016

 -------------
 #p 6-31g* mp2
 -------------

 ------------------------------------------------------
 Input file generated by CHIRIPA (05-May-2021 14:57:26)
 ------------------------------------------------------
 Symbolic Z-matrix:
 Charge =  0 Multiplicity = 1

                         Standard orientation:
 ---------------------------------------------------------------------
 Center     Atomic      Atomic             Coordinates (Angstroms)
 Number     Number       Type             X           Y           Z
 ---------------------------------------------------------------------
      1          6           0        4.393683    1.291302   -1.453926
      2          6           0        3.033196    1.051033   -1.672713
      3          6           0        2.320084    0.190586   -0.832682
      4          6           0        3.002029   -0.415498    0.221312
      5          6           0        4.356917   -0.196248    0.465234
      6          6           0        5.050044    0.667994   -0.387532
      7          1           0        4.939883    1.961192   -2.111429
      8          1           0        2.520868    1.533721   -2.500105
      9          1           0        1.266312   -0.013190   -0.979171
     10          1           0        4.840346   -0.691969    1.298285
     11          1           0        6.106560    0.852728   -0.215220
     12          7           0        2.257667   -1.328423    1.117355
     13          8           0        2.881497   -1.850096    2.038946
     14          8           0        1.064502   -1.505013    0.881116
     15          6           0       -2.342769    2.283401    1.222784
     16          6           0       -1.505866    1.698012    0.267046
     17          6           0       -1.928684    0.579415   -0.457186
     18          6           0       -3.200304    0.069909   -0.198966
     19          6           0       -4.057257    0.630750    0.746751
     20          6           0       -3.613552    1.748844    1.459170
     21          1           0       -2.006201    3.152159    1.780797
     22          1           0       -0.518449    2.111023    0.081366
     23          1           0       -1.301189    0.106467   -1.202830
     24          1           0       -5.036196    0.196542    0.909719
     25          1           0       -4.265641    2.201393    2.200806
     26          7           0       -3.658977   -1.114034   -0.959425
     27          8           0       -4.783806   -1.543915   -0.713252
     28          8           0       -2.884974   -1.589710   -1.787246
 ---------------------------------------------------------------------

 SCF Done:  E(RHF) =  -868.336665159     A.U. after   16 cycles
 E2 =    -0.2600851347D+01 EUMP2 =    -0.87093751650567D+03

 The electronic state is 1-A.
 Alpha  occ. eigenvalues --  -20.61124 -20.61107 -20.60402 -20.60391 -15.86171
 Alpha  occ. eigenvalues --  -15.85457 -11.31698 -11.30869 -11.28350 -11.28219
 Alpha  occ. eigenvalues --  -11.27983 -11.27549 -11.27440 -11.27336 -11.27260
 Alpha  occ. eigenvalues --  -11.27230 -11.26546 -11.26468  -1.60189  -1.59467
 Alpha  occ. eigenvalues --   -1.39739  -1.39022  -1.19867  -1.19053  -1.09219
 Alpha  occ. eigenvalues --   -1.08439  -1.05300  -1.04494  -0.96038  -0.95273
 Alpha  occ. eigenvalues --   -0.86680  -0.85889  -0.82867  -0.82129  -0.77922
 Alpha  occ. eigenvalues --   -0.77152  -0.72384  -0.71686  -0.71517  -0.70973
 Alpha  occ. eigenvalues --   -0.70776  -0.70196  -0.65512  -0.65300  -0.64729
 Alpha  occ. eigenvalues --   -0.64534  -0.62720  -0.61803  -0.55757  -0.55001
 Alpha  occ. eigenvalues --   -0.53607  -0.53385  -0.52760  -0.52618  -0.49155
 Alpha  occ. eigenvalues --   -0.49138  -0.48443  -0.48430  -0.45107  -0.44419
 Alpha  occ. eigenvalues --   -0.37826  -0.37016  -0.36908  -0.36049
 Alpha virt. eigenvalues --    0.04604   0.05418   0.10702   0.11592   0.16089
 Alpha virt. eigenvalues --    0.16860   0.19314   0.22055   0.24905   0.27318
 Alpha virt. eigenvalues --    0.27948   0.29478   0.30357   0.31095   0.31798

 Mulliken charges:
               1
     1  C   -0.170689
     2  C   -0.221753
     3  C   -0.178276
     4  C    0.158416
     5  C   -0.169877
     6  C   -0.218150
     7  H    0.227412
     8  H    0.224060
     9  H    0.276768
    10  H    0.277529
    11  H    0.225494
    12  N    0.486899
    13  O   -0.458470
    14  O   -0.458805
    15  C   -0.170091
    16  C   -0.215842
    17  C   -0.163732
    18  C    0.160801
    19  C   -0.169675
    20  C   -0.218061
    21  H    0.224219
    22  H    0.216117
    23  H    0.269631
    24  H    0.275589
    25  H    0.222828
    26  N    0.488996
    27  O   -0.460885
    28  O   -0.460456
 Sum of Mulliken charges =  -0.00000

 Dipole moment (field-independent basis, Debye):
    X=              4.3471    Y=              7.2664    Z=             -0.3682  Tot=              8.4755
 Quadrupole moment (field-independent basis, Debye-Ang):
   XX=            -91.4686   YY=           -108.3354   ZZ=           -105.7620
   XY=             -5.3801   XZ=            -18.0907   YZ=              0.9418

 Normal termination of Gaussian 16 at Fri May  7 11:14:06 2021.
