 Gaussian 16, Revision A.03,
 Gaussian 16:  EM64L-G16RevA.03 25-Dec-2016

 -------------
 #p 6-31g* mp2
 -------------

 ------------------------------------------------------
 Input file generated by CHIRIPA (05-May-2021 14:57:24)
 ------------------------------------------------------
 Symbolic Z-matrix:
 Charge =  0 Multiplicity = 1

                         Standard orientation:
 ---------------------------------------------------------------------
 Center     Atomic      Atomic             Coordinates (Angstroms)
 Number     Number       Type             X           Y           Z
 ---------------------------------------------------------------------
      1          6           0       -4.006219   -2.213702   -0.380374
      2          6           0       -4.915575   -1.273105    0.114470
      3          6           0       -4.554683    0.072946    0.226057
      4          6           0       -3.270436    0.445222   -0.168166
      5          6           0       -2.341982   -0.468241   -0.665003
      6          6           0       -2.724585   -1.808982   -0.767848
      7          1           0       -4.295001   -3.257285   -0.463662
      8          1           0       -5.911586   -1.584552    0.416143
      9          1           0       -5.238874    0.822018    0.605784
     10          1           0       -1.356245   -0.127605   -0.957761
     11          1           0       -2.016292   -2.537273   -1.152502
     12          7           0       -2.876884    1.867416   -0.054661
     13          8           0       -1.739437    2.169920   -0.408697
     14          8           0       -3.713318    2.652697    0.386190
     15          6           0        1.202394   -1.310629    0.966026
     16          6           0        1.312689    0.083769    0.969432
     17          6           0        2.489729    0.703946    0.539890
     18          6           0        3.541500   -0.104503    0.111547
     19          6           0        3.462182   -1.496182    0.096392
     20          6           0        2.275601   -2.094771    0.530285
     21          1           0        0.284335   -1.784013    1.301395
     22          1           0        0.480842    0.695259    1.307298
     23          1           0        2.602091    1.781319    0.532150
     24          1           0        4.308456   -2.079248   -0.246058
     25          1           0        2.192772   -3.177901    0.526553
     26          7           0        4.792629    0.540624   -0.345493
     27          8           0        5.704850   -0.193991   -0.718095
     28          8           0        4.837354    1.768673   -0.322464
 ---------------------------------------------------------------------

 SCF Done:  E(RHF) =  -868.338811709     A.U. after   16 cycles
 E2 =    -0.2600570348D+01 EUMP2 =    -0.87093938205692D+03

 The electronic state is 1-A.
 Alpha  occ. eigenvalues --  -20.61683 -20.61640 -20.60660 -20.60641 -15.86697
 Alpha  occ. eigenvalues --  -15.85705 -11.32027 -11.31134 -11.28578 -11.28573
 Alpha  occ. eigenvalues --  -11.28322 -11.27745 -11.27619 -11.27606 -11.27561
 Alpha  occ. eigenvalues --  -11.27502 -11.26829 -11.26614  -1.60730  -1.59727
 Alpha  occ. eigenvalues --   -1.40284  -1.39277  -1.20205  -1.19317  -1.09602
 Alpha  occ. eigenvalues --   -1.08723  -1.05595  -1.04697  -0.96437  -0.95537
 Alpha  occ. eigenvalues --   -0.86991  -0.86106  -0.83267  -0.82336  -0.78325
 Alpha  occ. eigenvalues --   -0.77360  -0.72908  -0.72057  -0.71922  -0.71289
 Alpha  occ. eigenvalues --   -0.71050  -0.70442  -0.65848  -0.65587  -0.64959
 Alpha  occ. eigenvalues --   -0.64681  -0.62923  -0.62005  -0.56080  -0.55269
 Alpha  occ. eigenvalues --   -0.53932  -0.53685  -0.53037  -0.52765  -0.49670
 Alpha  occ. eigenvalues --   -0.49662  -0.48689  -0.48671  -0.45683  -0.44667
 Alpha  occ. eigenvalues --   -0.38188  -0.37493  -0.37081  -0.36287
 Alpha virt. eigenvalues --    0.04146   0.05131   0.10334   0.11315   0.15560
 Alpha virt. eigenvalues --    0.16606   0.20528   0.21644   0.26472   0.27204
 Alpha virt. eigenvalues --    0.27790   0.28389   0.30067   0.31149   0.31836

 Mulliken charges:
               1
     1  C   -0.170337
     2  C   -0.218473
     3  C   -0.169994
     4  C    0.156662
     5  C   -0.179205
     6  C   -0.223571
     7  H    0.227840
     8  H    0.226404
     9  H    0.277905
    10  H    0.280902
    11  H    0.224316
    12  N    0.487575
    13  O   -0.463471
    14  O   -0.455315
    15  C   -0.180497
    16  C   -0.223188
    17  C   -0.170296
    18  C    0.158348
    19  C   -0.171679
    20  C   -0.219517
    21  H    0.223318
    22  H    0.236438
    23  H    0.282048
    24  H    0.274960
    25  H    0.219999
    26  N    0.487930
    27  O   -0.461708
    28  O   -0.457394
 Sum of Mulliken charges =  -0.00000

 Dipole moment (field-independent basis, Debye):
    X=             -5.9837    Y=             -7.0658    Z=              1.2122  Tot=              9.3381
 Quadrupole moment (field-independent basis, Debye-Ang):
   XX=           -121.6775   YY=           -105.1497   ZZ=           -105.0140
   XY=              5.5452   XZ=              4.5239   YZ=              1.8241

 Normal termination of Gaussian 16 at Thu May  6 09:49:23 2021.
