 Gaussian 16, Revision A.03,
 Gaussian 16:  EM64L-G16RevA.03 25-Dec-2016

 -------------
 #p 6-31g* mp2
 -------------

 ------------------------------------------------------
 Input file generated by CHIRIPA (05-May-2021 14:51:08)
 ------------------------------------------------------
 Symbolic Z-matrix:
 Charge =  0 Multiplicity = 1

                         Standard orientation:
 ---------------------------------------------------------------------
 Center     Atomic      Atomic             Coordinates (Angstroms)
 Number     Number       Type             X           Y           Z
 ---------------------------------------------------------------------
      1          6           0        3.904996   -0.712501    0.002367
      2          6           0        4.563371    0.647309    0.237831
      3          6           0        6.082064    0.550998    0.386455
      4          1           0        4.151355   -1.381671    0.838109
      5          1           0        4.334492   -1.168629   -0.900338
      6          1           0        4.131773    1.101348    1.139046
      7          1           0        4.315258    1.313380   -0.598474
      8          1           0        6.530890    0.121456   -0.515016
      9          1           0        6.346363   -0.091780    1.232376
     10          1           0        6.532220    1.534435    0.554002
     11          6           0        2.386880   -0.632618   -0.148200
     12          6           0        1.728506   -1.992428   -0.383664
     13          6           0        0.209813   -1.896117   -0.532287
     14          1           0        1.957384   -0.176490    0.754505
     15          1           0        2.140521    0.036552   -0.983942
     16          1           0        1.976619   -2.658499    0.452641
     17          1           0        2.160103   -2.446467   -1.284879
     18          1           0       -0.054487   -1.253339   -1.378209
     19          1           0       -0.239014   -1.466575    0.369183
     20          1           0       -0.240343   -2.879554   -0.699834
     21          6           0       -3.289592   -0.014523    0.374104
     22          6           0       -4.610241   -0.620947   -0.101417
     23          6           0       -4.883593   -1.995510    0.509854
     24          1           0       -2.467735   -0.699004    0.123145
     25          1           0       -3.305018    0.066912    1.469790
     26          1           0       -4.592878   -0.699931   -1.195983
     27          1           0       -5.429028    0.065148    0.150534
     28          1           0       -4.927742   -1.929660    1.601786
     29          1           0       -4.086841   -2.699086    0.247618
     30          1           0       -5.832616   -2.410549    0.156359
     31          6           0       -3.002284    1.359641   -0.228272
     32          6           0       -1.681636    1.966066    0.247249
     33          6           0       -1.408284    3.340629   -0.364020
     34          1           0       -2.986859    1.278208   -1.323957
     35          1           0       -3.824141    2.044123    0.022689
     36          1           0       -0.862849    1.279972   -0.004702
     37          1           0       -1.698998    2.045050    1.341816
     38          1           0       -2.205035    4.044205   -0.101785
     39          1           0       -1.364135    3.274780   -1.455952
     40          1           0       -0.459261    3.755668   -0.010525
 ---------------------------------------------------------------------

 SCF Done:  E(RHF) =  -470.732881060     A.U. after   11 cycles
 E2 =    -0.1583620228D+01 EUMP2 =    -0.47231650128872D+03

 The electronic state is 1-A.
 Alpha  occ. eigenvalues --  -11.21670 -11.21627 -11.21511 -11.21501 -11.21456
 Alpha  occ. eigenvalues --  -11.21394 -11.21295 -11.21199 -11.21164 -11.21091
 Alpha  occ. eigenvalues --  -11.21013 -11.21005  -1.08485  -1.08331  -1.03588
 Alpha  occ. eigenvalues --   -1.03446  -0.96054  -0.95890  -0.87075  -0.86910
 Alpha  occ. eigenvalues --   -0.79679  -0.79511  -0.78345  -0.78086  -0.65116
 Alpha  occ. eigenvalues --   -0.64971  -0.60988  -0.60848  -0.59420  -0.59250
 Alpha  occ. eigenvalues --   -0.57698  -0.57478  -0.55356  -0.55175  -0.52752
 Alpha  occ. eigenvalues --   -0.52631  -0.52487  -0.52284  -0.50025  -0.49809
 Alpha  occ. eigenvalues --   -0.48068  -0.47827  -0.46719  -0.46547  -0.46042
 Alpha  occ. eigenvalues --   -0.45767  -0.45654  -0.45187  -0.43835  -0.43690
 Alpha virt. eigenvalues --    0.21347   0.22940   0.23801   0.24442   0.25790
 Alpha virt. eigenvalues --    0.26528   0.27137   0.27380   0.27977   0.29655
 Alpha virt. eigenvalues --    0.30977   0.31182   0.31557   0.31795   0.31968

 Mulliken charges:
               1
     1  C   -0.298355
     2  C   -0.299726
     3  C   -0.475748
     4  H    0.149840
     5  H    0.149652
     6  H    0.152101
     7  H    0.152067
     8  H    0.155211
     9  H    0.155228
    10  H    0.160390
    11  C   -0.299717
    12  C   -0.300163
    13  C   -0.480381
    14  H    0.150921
    15  H    0.149787
    16  H    0.152370
    17  H    0.152043
    18  H    0.155259
    19  H    0.160046
    20  H    0.160344
    21  C   -0.308871
    22  C   -0.298748
    23  C   -0.475747
    24  H    0.163175
    25  H    0.147848
    26  H    0.151515
    27  H    0.151375
    28  H    0.154792
    29  H    0.155246
    30  H    0.159861
    31  C   -0.297092
    32  C   -0.305047
    33  C   -0.475407
    34  H    0.148659
    35  H    0.149096
    36  H    0.157689
    37  H    0.150859
    38  H    0.154938
    39  H    0.154613
    40  H    0.160075
 Sum of Mulliken charges =  -0.00000

 Dipole moment (field-independent basis, Debye):
    X=              0.0685    Y=             -0.0441    Z=             -0.0003  Tot=              0.0814
 Quadrupole moment (field-independent basis, Debye-Ang):
   XX=            -86.0957   YY=            -85.6594   ZZ=            -83.2979
   XY=             -0.5929   XZ=             -0.4684   YZ=              0.5616

 Normal termination of Gaussian 16 at Wed May  5 22:56:17 2021.
