 Gaussian 16, Revision A.03,
 Gaussian 16:  EM64L-G16RevA.03 25-Dec-2016

 -------------
 #p 6-31g* mp2
 -------------

 ------------------------------------------------------
 Input file generated by CHIRIPA (05-May-2021 14:57:21)
 ------------------------------------------------------
 Symbolic Z-matrix:
 Charge =  0 Multiplicity = 1

                         Standard orientation:
 ---------------------------------------------------------------------
 Center     Atomic      Atomic             Coordinates (Angstroms)
 Number     Number       Type             X           Y           Z
 ---------------------------------------------------------------------
      1          6           0        5.990926   -0.439601    0.669641
      2          6           0        5.026972   -1.453166    0.670312
      3          6           0        3.756852   -1.225410    0.132288
      4          6           0        3.483498    0.033411   -0.400569
      5          6           0        4.422626    1.063504   -0.415920
      6          6           0        5.686214    0.813290    0.127483
      7          1           0        6.975049   -0.625251    1.089680
      8          1           0        5.260819   -2.427152    1.090683
      9          1           0        2.991811   -1.992206    0.119853
     10          1           0        4.160047    2.024155   -0.842089
     11          1           0        6.432865    1.602310    0.125603
     12          7           0        2.142336    0.286413   -0.972998
     13          8           0        1.926390    1.404104   -1.436433
     14          8           0        1.332474   -0.637765   -0.947394
     15          6           0       -1.489219    0.531131    1.394768
     16          6           0       -2.460988    1.529491    1.270414
     17          6           0       -3.692002    1.251121    0.669030
     18          6           0       -3.918706   -0.042260    0.200990
     19          6           0       -2.970617   -1.058373    0.310208
     20          6           0       -1.746681   -0.757344    0.915113
     21          1           0       -0.535687    0.756176    1.863304
     22          1           0       -2.263797    2.531028    1.642009
     23          1           0       -4.462056    2.005115    0.559809
     24          1           0       -3.196240   -2.047360   -0.069817
     25          1           0       -0.993852   -1.534664    1.010330
     26          7           0       -5.218179   -0.348952   -0.437532
     27          8           0       -5.393377   -1.496355   -0.841771
     28          8           0       -6.036902    0.563873   -0.521676
 ---------------------------------------------------------------------

 SCF Done:  E(RHF) =  -868.338392246     A.U. after   16 cycles
 E2 =    -0.2599415964D+01 EUMP2 =    -0.87093780821003D+03

 The electronic state is 1-A.
 Alpha  occ. eigenvalues --  -20.61655 -20.61624 -20.59913 -20.59906 -15.86679
 Alpha  occ. eigenvalues --  -15.84957 -11.31946 -11.30139 -11.28518 -11.28473
 Alpha  occ. eigenvalues --  -11.28186 -11.27477 -11.27452 -11.26699 -11.26633
 Alpha  occ. eigenvalues --  -11.26395 -11.25716 -11.25599  -1.60711  -1.58989
 Alpha  occ. eigenvalues --   -1.40270  -1.38549  -1.20101  -1.18277  -1.09508
 Alpha  occ. eigenvalues --   -1.07710  -1.05484  -1.03656  -0.96361  -0.94587
 Alpha  occ. eigenvalues --   -0.86885  -0.85070  -0.83195  -0.81430  -0.78266
 Alpha  occ. eigenvalues --   -0.76499  -0.72895  -0.72050  -0.71195  -0.71185
 Alpha  occ. eigenvalues --   -0.70305  -0.69426  -0.65750  -0.65472  -0.63943
 Alpha  occ. eigenvalues --   -0.63667  -0.62832  -0.61025  -0.55967  -0.54203
 Alpha  occ. eigenvalues --   -0.53824  -0.53566  -0.51977  -0.51768  -0.49657
 Alpha  occ. eigenvalues --   -0.49623  -0.47948  -0.47926  -0.45692  -0.43997
 Alpha  occ. eigenvalues --   -0.38071  -0.37086  -0.36209  -0.35210
 Alpha virt. eigenvalues --    0.04233   0.06030   0.10569   0.12436   0.15769
 Alpha virt. eigenvalues --    0.17584   0.20709   0.22369   0.26598   0.27384
 Alpha virt. eigenvalues --    0.28466   0.29133   0.30397   0.31432   0.32368

 Mulliken charges:
               1
     1  C   -0.170332
     2  C   -0.218187
     3  C   -0.172410
     4  C    0.156810
     5  C   -0.171269
     6  C   -0.218317
     7  H    0.228087
     8  H    0.225250
     9  H    0.272796
    10  H    0.276786
    11  H    0.225792
    12  N    0.487487
    13  O   -0.456236
    14  O   -0.464696
    15  C   -0.165129
    16  C   -0.216984
    17  C   -0.172177
    18  C    0.158513
    19  C   -0.172387
    20  C   -0.202630
    21  H    0.219004
    22  H    0.219569
    23  H    0.272117
    24  H    0.272611
    25  H    0.223604
    26  N    0.488266
    27  O   -0.462617
    28  O   -0.463318
 Sum of Mulliken charges =   0.00000

 Dipole moment (field-independent basis, Debye):
    X=              9.7481    Y=              0.1883    Z=              4.2023  Tot=             10.6170
 Quadrupole moment (field-independent basis, Debye-Ang):
   XX=           -108.3219   YY=            -96.3063   ZZ=           -106.9020
   XY=             -7.4001   XZ=             -3.0717   YZ=             -0.0340

 Normal termination of Gaussian 16 at Thu May  6 06:31:13 2021.
