 Gaussian 16, Revision A.03,
 Gaussian 16:  EM64L-G16RevA.03 25-Dec-2016

 -------------
 #p 6-31g* mp2
 -------------

 ------------------------------------------------------
 Input file generated by CHIRIPA (05-May-2021 14:51:07)
 ------------------------------------------------------
 Symbolic Z-matrix:
 Charge =  0 Multiplicity = 1

                         Standard orientation:
 ---------------------------------------------------------------------
 Center     Atomic      Atomic             Coordinates (Angstroms)
 Number     Number       Type             X           Y           Z
 ---------------------------------------------------------------------
      1          6           0        2.422733    1.120902   -0.587007
      2          6           0        1.688072    1.983905    0.439387
      3          6           0        1.710606    3.471229    0.085613
      4          1           0        3.463156    1.464312   -0.667840
      5          1           0        1.966481    1.270615   -1.575346
      6          1           0        2.144689    1.831556    1.425747
      7          1           0        0.649328    1.638277    0.517926
      8          1           0        1.236734    3.643276   -0.886213
      9          1           0        2.740591    3.837654    0.026766
     10          1           0        1.179777    4.069656    0.832584
     11          6           0        2.408914   -0.368408   -0.247165
     12          6           0        3.143575   -1.231411   -1.273558
     13          6           0        3.121041   -2.718735   -0.919784
     14          1           0        2.865166   -0.518121    0.741175
     15          1           0        1.368491   -0.711818   -0.166331
     16          1           0        4.182318   -0.885783   -1.352098
     17          1           0        2.686958   -1.079062   -2.259919
     18          1           0        2.091055   -3.085160   -0.860937
     19          1           0        3.594913   -2.890783    0.052042
     20          1           0        3.651869   -3.317162   -1.666756
     21          6           0       -1.866119   -0.796782    0.740207
     22          6           0       -1.449745   -0.292024    2.122176
     23          6           0       -0.349207   -1.143639    2.755708
     24          1           0       -2.208509   -1.837249    0.824715
     25          1           0       -0.986443   -0.809695    0.081878
     26          1           0       -2.330223   -0.278756    2.777306
     27          1           0       -1.108486    0.747425    2.034399
     28          1           0        0.545769   -1.147801    2.125152
     29          1           0       -0.682910   -2.179812    2.872280
     30          1           0       -0.066841   -0.765042    3.743025
     31          6           0       -2.965528    0.044288    0.093964
     32          6           0       -3.381903   -0.460470   -1.288004
     33          6           0       -4.482440    0.391144   -1.921537
     34          1           0       -3.845204    0.057201    0.752294
     35          1           0       -2.623138    1.084756    0.009456
     36          1           0       -3.723161   -1.499919   -1.200228
     37          1           0       -2.501423   -0.473738   -1.943135
     38          1           0       -4.148737    1.427318   -2.038108
     39          1           0       -5.377416    0.395306   -1.290981
     40          1           0       -4.764805    0.012549   -2.908854
 ---------------------------------------------------------------------

 SCF Done:  E(RHF) =  -470.732223353     A.U. after   11 cycles
 E2 =    -0.1585359751D+01 EUMP2 =    -0.47231758310381D+03

 The electronic state is 1-A.
 Alpha  occ. eigenvalues --  -11.21663 -11.21652 -11.21641 -11.21547 -11.21474
 Alpha  occ. eigenvalues --  -11.21431 -11.21413 -11.21369 -11.21133 -11.21100
 Alpha  occ. eigenvalues --  -11.21096 -11.20923  -1.08545  -1.08414  -1.03593
 Alpha  occ. eigenvalues --   -1.03515  -0.96044  -0.95963  -0.87063  -0.86977
 Alpha  occ. eigenvalues --   -0.79722  -0.79532  -0.78432  -0.78189  -0.65431
 Alpha  occ. eigenvalues --   -0.64828  -0.61047  -0.60870  -0.59428  -0.59320
 Alpha  occ. eigenvalues --   -0.57697  -0.57542  -0.55356  -0.55243  -0.52726
 Alpha  occ. eigenvalues --   -0.52652  -0.52497  -0.52375  -0.50001  -0.49927
 Alpha  occ. eigenvalues --   -0.48036  -0.47961  -0.46876  -0.46485  -0.46313
 Alpha  occ. eigenvalues --   -0.45773  -0.45675  -0.45098  -0.43845  -0.43778
 Alpha virt. eigenvalues --    0.19934   0.23120   0.23864   0.24151   0.25525
 Alpha virt. eigenvalues --    0.26301   0.26668   0.28136   0.28296   0.30163
 Alpha virt. eigenvalues --    0.30739   0.31319   0.31565   0.31758   0.32201

 Mulliken charges:
               1
     1  C   -0.297063
     2  C   -0.306982
     3  C   -0.475524
     4  H    0.150136
     5  H    0.148981
     6  H    0.152755
     7  H    0.158219
     8  H    0.155006
     9  H    0.155613
    10  H    0.160396
    11  C   -0.311030
    12  C   -0.298398
    13  C   -0.476346
    14  H    0.150919
    15  H    0.159952
    16  H    0.152169
    17  H    0.151714
    18  H    0.155639
    19  H    0.155512
    20  H    0.160559
    21  C   -0.306394
    22  C   -0.302386
    23  C   -0.482514
    24  H    0.150140
    25  H    0.154686
    26  H    0.152062
    27  H    0.154732
    28  H    0.163744
    29  H    0.154152
    30  H    0.159368
    31  C   -0.298185
    32  C   -0.299554
    33  C   -0.475726
    34  H    0.150095
    35  H    0.149263
    36  H    0.152178
    37  H    0.151203
    38  H    0.155196
    39  H    0.155395
    40  H    0.160319
 Sum of Mulliken charges =  -0.00000

 Dipole moment (field-independent basis, Debye):
    X=              0.0378    Y=              0.0037    Z=             -0.0152  Tot=              0.0409
 Quadrupole moment (field-independent basis, Debye-Ang):
   XX=            -84.0671   YY=            -85.8867   ZZ=            -84.7850
   XY=              0.9945   XZ=             -0.2685   YZ=              0.2872

 Normal termination of Gaussian 16 at Thu May  6 09:59:15 2021.
