 Gaussian 16, Revision A.03,
 Gaussian 16:  EM64L-G16RevA.03 25-Dec-2016

 -------------
 #p 6-31g* mp2
 -------------

 ------------------------------------------------------
 Input file generated by CHIRIPA (05-May-2021 14:55:22)
 ------------------------------------------------------
 Symbolic Z-matrix:
 Charge =  0 Multiplicity = 1

                         Standard orientation:
 ---------------------------------------------------------------------
 Center     Atomic      Atomic             Coordinates (Angstroms)
 Number     Number       Type             X           Y           Z
 ---------------------------------------------------------------------
      1          6           0        0.976690   -1.478735    0.876155
      2          6           0        1.055131   -1.086980   -0.464328
      3          6           0        2.125088   -0.308091   -0.914964
      4          6           0        3.103422    0.062851    0.006206
      5          6           0        3.053362   -0.311651    1.348045
      6          6           0        1.974297   -1.090505    1.776476
      7          1           0        0.141984   -2.083781    1.217595
      8          1           0        0.281820   -1.387017   -1.165764
      9          1           0        2.210602    0.009147   -1.947178
     10          1           0        3.839446    0.002900    2.023728
     11          1           0        1.915976   -1.393285    2.818094
     12          7           0        4.240959    0.887407   -0.459108
     13          8           0        5.090032    1.201156    0.372321
     14          8           0        4.261948    1.204332   -1.646439
     15          6           0       -3.925190   -0.639854   -0.198084
     16          6           0       -2.723669   -1.559769   -0.417373
     17          6           0       -3.125479   -3.023695   -0.599759
     18          1           0       -4.483818   -0.980903    0.684278
     19          1           0       -4.608017   -0.729691   -1.054280
     20          1           0       -2.042636   -1.467184    0.438335
     21          1           0       -2.167728   -1.216376   -1.299204
     22          1           0       -3.786795   -3.136752   -1.464907
     23          1           0       -3.660991   -3.388985    0.282506
     24          1           0       -2.251262   -3.663602   -0.755066
     25          6           0       -3.539623    0.826852   -0.014129
     26          6           0       -4.741143    1.746767    0.205160
     27          6           0       -4.339333    3.210693    0.387546
     28          1           0       -2.856796    0.916690    0.842068
     29          1           0       -2.980994    1.167901   -0.896492
     30          1           0       -5.297084    1.403374    1.086992
     31          1           0       -5.422176    1.654183   -0.650548
     32          1           0       -3.803821    3.575983   -0.494719
     33          1           0       -3.678019    3.323749    1.252694
     34          1           0       -5.213551    3.850601    0.542853
 ---------------------------------------------------------------------

 SCF Done:  E(RHF) =  -669.534638285     A.U. after   15 cycles
 E2 =    -0.2092421940D+01 EUMP2 =    -0.67162706022494D+03

 The electronic state is 1-A.
 Alpha  occ. eigenvalues --  -20.60715 -20.60710 -15.85767 -11.31120 -11.27684
 Alpha  occ. eigenvalues --  -11.27664 -11.27391 -11.26704 -11.26632 -11.22855
 Alpha  occ. eigenvalues --  -11.22266 -11.22201 -11.22126 -11.22037 -11.21456
 Alpha  occ. eigenvalues --   -1.59791  -1.39345  -1.19285  -1.09270  -1.08680
 Alpha  occ. eigenvalues --   -1.04689  -1.04358  -0.96768  -0.95524  -0.87784
 Alpha  occ. eigenvalues --   -0.86088  -0.82357  -0.80503  -0.79035  -0.77395
 Alpha  occ. eigenvalues --   -0.71986  -0.71113  -0.70421  -0.65899  -0.64935
 Alpha  occ. eigenvalues --   -0.64708  -0.62070  -0.61753  -0.60159  -0.58374
 Alpha  occ. eigenvalues --   -0.56043  -0.55193  -0.53492  -0.53201  -0.53003
 Alpha  occ. eigenvalues --   -0.52782  -0.50697  -0.48810  -0.48744  -0.48679
 Alpha  occ. eigenvalues --   -0.47501  -0.46554  -0.46452  -0.44753  -0.44589
 Alpha  occ. eigenvalues --   -0.37246  -0.36281
 Alpha virt. eigenvalues --    0.05102   0.11326   0.16532   0.19652   0.22501
 Alpha virt. eigenvalues --    0.23944   0.24700   0.25956   0.27046   0.27692
 Alpha virt. eigenvalues --    0.29263   0.29608   0.30936   0.31214   0.31735

 Mulliken charges:
               1
     1  C   -0.174921
     2  C   -0.219180
     3  C   -0.172446
     4  C    0.158803
     5  C   -0.171314
     6  C   -0.218857
     7  H    0.227613
     8  H    0.229727
     9  H    0.275221
    10  H    0.275214
    11  H    0.222927
    12  N    0.488047
    13  O   -0.460662
    14  O   -0.460631
    15  C   -0.297581
    16  C   -0.307393
    17  C   -0.477643
    18  H    0.151632
    19  H    0.152837
    20  H    0.147607
    21  H    0.149127
    22  H    0.161104
    23  H    0.158644
    24  H    0.156766
    25  C   -0.299074
    26  C   -0.300409
    27  C   -0.476202
    28  H    0.150228
    29  H    0.150604
    30  H    0.152347
    31  H    0.153035
    32  H    0.156784
    33  H    0.156044
    34  H    0.162003
 Sum of Mulliken charges =  -0.00000

 Dipole moment (field-independent basis, Debye):
    X=             -4.2437    Y=             -2.8475    Z=              1.6260  Tot=              5.3630
 Quadrupole moment (field-independent basis, Debye-Ang):
   XX=           -118.9011   YY=            -96.9437   ZZ=            -89.5265
   XY=             -9.4969   XZ=              7.2464   YZ=             -0.2240

 Normal termination of Gaussian 16 at Thu May  6 19:12:36 2021.
