 Gaussian 16, Revision A.03,
 Gaussian 16:  EM64L-G16RevA.03 25-Dec-2016

 -------------
 #p 6-31g* mp2
 -------------

 ------------------------------------------------------
 Input file generated by CHIRIPA (05-May-2021 14:55:20)
 ------------------------------------------------------
 Symbolic Z-matrix:
 Charge =  0 Multiplicity = 1

                         Standard orientation:
 ---------------------------------------------------------------------
 Center     Atomic      Atomic             Coordinates (Angstroms)
 Number     Number       Type             X           Y           Z
 ---------------------------------------------------------------------
      1          6           0        4.157460    1.139044    1.004098
      2          6           0        2.876372    1.052490    1.558932
      3          6           0        1.942907    0.143649    1.051784
      4          6           0        2.325933   -0.667050   -0.015619
      5          6           0        3.594606   -0.604400   -0.589932
      6          6           0        4.511864    0.311781   -0.066676
      7          1           0        4.876304    1.847905    1.404319
      8          1           0        2.598370    1.693703    2.390561
      9          1           0        0.944330    0.055830    1.462332
     10          1           0        3.842568   -1.256773   -1.418390
     11          1           0        5.506061    0.376819   -0.499557
     12          7           0        1.346294   -1.633085   -0.561040
     13          8           0        1.708363   -2.336183   -1.501889
     14          8           0        0.234934   -1.668872   -0.037365
     15          6           0       -2.488814    0.963182   -0.142825
     16          6           0       -2.468592    2.278436   -0.922365
     17          6           0       -1.071123    2.892708   -1.009233
     18          1           0       -2.100172    1.138418    0.869694
     19          1           0       -1.803160    0.250552   -0.621815
     20          1           0       -3.155125    2.987912   -0.442852
     21          1           0       -2.857507    2.100088   -1.933084
     22          1           0       -0.378797    2.206144   -1.507143
     23          1           0       -0.678107    3.099013   -0.008444
     24          1           0       -1.079726    3.832175   -1.570649
     25          6           0       -3.878903    0.336877   -0.047314
     26          6           0       -3.899125   -0.978378    0.732226
     27          6           0       -5.296594   -1.592649    0.819093
     28          1           0       -4.564557    1.049507    0.431676
     29          1           0       -4.267545    0.161640   -1.059833
     30          1           0       -3.510210   -0.800029    1.742945
     31          1           0       -3.212592   -1.687853    0.252712
     32          1           0       -5.689610   -1.798954   -0.181695
     33          1           0       -5.988920   -0.906085    1.317004
     34          1           0       -5.287990   -2.532116    1.380510
 ---------------------------------------------------------------------

 SCF Done:  E(RHF) =  -669.536368854     A.U. after   15 cycles
 E2 =    -0.2091946661D+01 EUMP2 =    -0.67162831551542D+03

 The electronic state is 1-A.
 Alpha  occ. eigenvalues --  -20.60945 -20.60938 -15.85965 -11.31252 -11.27819
 Alpha  occ. eigenvalues --  -11.27804 -11.27551 -11.26817 -11.26804 -11.21180
 Alpha  occ. eigenvalues --  -11.20907 -11.20712 -11.20661 -11.20611 -11.20357
 Alpha  occ. eigenvalues --   -1.60003  -1.39558  -1.19419  -1.08832  -1.07767
 Alpha  occ. eigenvalues --   -1.04810  -1.02947  -0.95680  -0.95421  -0.86448
 Alpha  occ. eigenvalues --   -0.86212  -0.82515  -0.79000  -0.77681  -0.77425
 Alpha  occ. eigenvalues --   -0.72188  -0.71313  -0.70529  -0.65079  -0.64815
 Alpha  occ. eigenvalues --   -0.64390  -0.62157  -0.60347  -0.58803  -0.57015
 Alpha  occ. eigenvalues --   -0.55320  -0.54723  -0.53144  -0.52903  -0.52144
 Alpha  occ. eigenvalues --   -0.51851  -0.49388  -0.48957  -0.48949  -0.47329
 Alpha  occ. eigenvalues --   -0.46039  -0.45344  -0.45106  -0.44520  -0.43170
 Alpha  occ. eigenvalues --   -0.37397  -0.36403
 Alpha virt. eigenvalues --    0.04921   0.11228   0.16383   0.21071   0.23369
 Alpha virt. eigenvalues --    0.24683   0.26207   0.27584   0.27700   0.28389
 Alpha virt. eigenvalues --    0.29122   0.31030   0.31817   0.32057   0.32323

 Mulliken charges:
               1
     1  C   -0.170266
     2  C   -0.218624
     3  C   -0.170205
     4  C    0.157182
     5  C   -0.170764
     6  C   -0.218652
     7  H    0.225911
     8  H    0.223737
     9  H    0.277917
    10  H    0.275547
    11  H    0.223632
    12  N    0.488545
    13  O   -0.459296
    14  O   -0.460297
    15  C   -0.305438
    16  C   -0.299017
    17  C   -0.474236
    18  H    0.139161
    19  H    0.171620
    20  H    0.148925
    21  H    0.152837
    22  H    0.155505
    23  H    0.147808
    24  H    0.158671
    25  C   -0.297741
    26  C   -0.302315
    27  C   -0.475533
    28  H    0.144495
    29  H    0.149338
    30  H    0.147076
    31  H    0.169255
    32  H    0.154543
    33  H    0.151097
    34  H    0.159581
 Sum of Mulliken charges =  -0.00000

 Dipole moment (field-independent basis, Debye):
    X=              3.6259    Y=              3.2023    Z=              1.8409  Tot=              5.1760
 Quadrupole moment (field-independent basis, Debye-Ang):
   XX=            -78.2566   YY=            -99.9652   ZZ=            -92.3444
   XY=              4.3741   XZ=              2.2063   YZ=              0.5296

 Normal termination of Gaussian 16 at Wed May  5 22:10:06 2021.
