 Gaussian 16, Revision A.03,
 Gaussian 16:  EM64L-G16RevA.03 25-Dec-2016

 -------------
 #p 6-31g* mp2
 -------------

 ------------------------------------------------------
 Input file generated by CHIRIPA (05-May-2021 14:53:11)
 ------------------------------------------------------
 Symbolic Z-matrix:
 Charge =  0 Multiplicity = 1

                         Standard orientation:
 ---------------------------------------------------------------------
 Center     Atomic      Atomic             Coordinates (Angstroms)
 Number     Number       Type             X           Y           Z
 ---------------------------------------------------------------------
      1          6           0       -4.668469   -0.494676   -0.184626
      2          6           0       -5.310538    0.618291   -1.013502
      3          6           0       -6.445592    0.112270   -1.904226
      4          1           0       -4.287379   -1.272856   -0.860015
      5          1           0       -5.439396   -0.970573    0.437136
      6          1           0       -4.538365    1.092861   -1.632492
      7          1           0       -5.689974    1.394003   -0.336069
      8          1           0       -7.236195   -0.343290   -1.299235
      9          1           0       -6.078043   -0.646143   -2.603024
     10          1           0       -6.890345    0.924279   -2.487918
     11          6           0       -3.532092   -0.004430    0.710938
     12          6           0       -2.890022   -1.117397    1.539814
     13          6           0       -1.754968   -0.611376    2.430538
     14          1           0       -2.761164    0.471468    0.089176
     15          1           0       -3.913182    0.773750    1.386327
     16          1           0       -2.510587   -1.893109    0.862382
     17          1           0       -3.662196   -1.591967    2.158804
     18          1           0       -2.122518    0.147037    3.129336
     19          1           0       -0.964366   -0.155816    1.825547
     20          1           0       -1.310215   -1.423384    3.014230
     21          6           0        4.725779   -1.739595   -0.758400
     22          6           0        3.348451   -1.947159   -0.630315
     23          6           0        2.495430   -0.882624   -0.324262
     24          6           0        3.056161    0.381989   -0.152147
     25          6           0        4.424246    0.620698   -0.273189
     26          6           0        5.258342   -0.458588   -0.579742
     27          1           0        5.381076   -2.572280   -0.996343
     28          1           0        2.932070   -2.940925   -0.768518
     29          1           0        1.425460   -1.015159   -0.219305
     30          1           0        4.809956    1.622722   -0.129686
     31          1           0        6.327606   -0.294440   -0.678607
     32          7           0        2.163123    1.516772    0.172122
     33          8           0        2.681914    2.621283    0.318914
     34          8           0        0.961278    1.280217    0.273352
 ---------------------------------------------------------------------

 SCF Done:  E(RHF) =  -669.536228944     A.U. after   15 cycles
 E2 =    -0.2091036187D+01 EUMP2 =    -0.67162726513091D+03

 The electronic state is 1-A.
 Alpha  occ. eigenvalues --  -20.60959 -20.60943 -15.85990 -11.31292 -11.27856
 Alpha  occ. eigenvalues --  -11.27852 -11.27591 -11.26861 -11.26851 -11.21113
 Alpha  occ. eigenvalues --  -11.21011 -11.20869 -11.20698 -11.20648 -11.20190
 Alpha  occ. eigenvalues --   -1.60013  -1.39571  -1.19460  -1.08867  -1.07843
 Alpha  occ. eigenvalues --   -1.04855  -1.02951  -0.95714  -0.95382  -0.86397
 Alpha  occ. eigenvalues --   -0.86257  -0.82549  -0.79022  -0.77662  -0.77577
 Alpha  occ. eigenvalues --   -0.72217  -0.71323  -0.70571  -0.65120  -0.64860
 Alpha  occ. eigenvalues --   -0.64475  -0.62205  -0.60350  -0.58771  -0.56994
 Alpha  occ. eigenvalues --   -0.55361  -0.54658  -0.53187  -0.52948  -0.52106
 Alpha  occ. eigenvalues --   -0.51789  -0.49339  -0.48961  -0.48938  -0.47325
 Alpha  occ. eigenvalues --   -0.46065  -0.45201  -0.45120  -0.44902  -0.43209
 Alpha  occ. eigenvalues --   -0.37438  -0.36455
 Alpha virt. eigenvalues --    0.04901   0.11196   0.16383   0.21007   0.23256
 Alpha virt. eigenvalues --    0.24471   0.26784   0.27408   0.27796   0.28256
 Alpha virt. eigenvalues --    0.29018   0.30633   0.31656   0.32248   0.32348

 Mulliken charges:
               1
     1  C   -0.297592
     2  C   -0.299565
     3  C   -0.475309
     4  H    0.146167
     5  H    0.147340
     6  H    0.153924
     7  H    0.152439
     8  H    0.154022
     9  H    0.153456
    10  H    0.159563
    11  C   -0.300391
    12  C   -0.297583
    13  C   -0.488257
    14  H    0.159720
    15  H    0.150280
    16  H    0.143804
    17  H    0.148597
    18  H    0.155784
    19  H    0.178377
    20  H    0.151665
    21  C   -0.170522
    22  C   -0.218757
    23  C   -0.170632
    24  C    0.158061
    25  C   -0.170814
    26  C   -0.218583
    27  H    0.226019
    28  H    0.224002
    29  H    0.276306
    30  H    0.275826
    31  H    0.223824
    32  N    0.492202
    33  O   -0.458504
    34  O   -0.464866
 Sum of Mulliken charges =  -0.00000

 Dipole moment (field-independent basis, Debye):
    X=              3.3802    Y=             -3.8337    Z=             -1.1861  Tot=              5.2469
 Quadrupole moment (field-independent basis, Debye-Ang):
   XX=            -73.3577   YY=            -96.4759   ZZ=            -95.5427
   XY=             -9.1687   XZ=             -5.0435   YZ=              0.5494

 Normal termination of Gaussian 16 at Wed May  5 21:42:23 2021.
