 Gaussian 16, Revision A.03,
 Gaussian 16:  EM64L-G16RevA.03 25-Dec-2016

 -------------
 #p 6-31g* mp2
 -------------

 ------------------------------------------------------
 Input file generated by CHIRIPA (05-May-2021 14:51:11)
 ------------------------------------------------------
 Symbolic Z-matrix:
 Charge =  0 Multiplicity = 1

                         Standard orientation:
 ---------------------------------------------------------------------
 Center     Atomic      Atomic             Coordinates (Angstroms)
 Number     Number       Type             X           Y           Z
 ---------------------------------------------------------------------
      1          6           0        3.308770   -0.869637   -0.173905
      2          6           0        1.890029   -1.419816   -0.323781
      3          6           0        1.862285   -2.934132   -0.533238
      4          1           0        3.891896   -1.128258   -1.068346
      5          1           0        3.799790   -1.367058    0.673955
      6          1           0        1.401356   -0.920509   -1.170249
      7          1           0        1.310158   -1.159689    0.571037
      8          1           0        2.325349   -3.448885    0.314820
      9          1           0        2.417064   -3.208346   -1.436360
     10          1           0        0.838359   -3.306239   -0.637977
     11          6           0        3.352955    0.642860    0.036164
     12          6           0        4.771696    1.193039    0.186041
     13          6           0        4.799440    2.707355    0.395498
     14          1           0        2.861936    1.140282   -0.811696
     15          1           0        2.769830    0.901481    0.930605
     16          1           0        5.351567    0.932913   -0.708778
     17          1           0        5.260369    0.693732    1.032508
     18          1           0        4.244661    2.981569    1.298619
     19          1           0        4.336377    3.222108   -0.452560
     20          1           0        5.823367    3.079462    0.500237
     21          6           0       -2.915935   -0.492101   -0.142434
     22          6           0       -3.129280   -1.714854    0.750509
     23          6           0       -2.292368   -2.918089    0.315085
     24          1           0       -3.162754   -0.756081   -1.179902
     25          1           0       -1.850958   -0.221651   -0.133622
     26          1           0       -4.193761   -1.982077    0.741110
     27          1           0       -2.882108   -1.447878    1.786002
     28          1           0       -1.225212   -2.675068    0.341921
     29          1           0       -2.544316   -3.212302   -0.708908
     30          1           0       -2.460308   -3.780986    0.967054
     31          6           0       -3.745791    0.718878    0.280174
     32          6           0       -3.532445    1.941630   -0.612768
     33          6           0       -4.369358    3.144866   -0.177343
     34          1           0       -4.810767    0.448427    0.271363
     35          1           0       -3.498972    0.982857    1.317642
     36          1           0       -3.779617    1.674654   -1.648261
     37          1           0       -2.467964    2.208853   -0.603369
     38          1           0       -4.117408    3.439079    0.846649
     39          1           0       -5.436514    2.901845   -0.204180
     40          1           0       -4.201417    4.007762   -0.829314
 ---------------------------------------------------------------------

 SCF Done:  E(RHF) =  -470.733251635     A.U. after   11 cycles
 E2 =    -0.1582817453D+01 EUMP2 =    -0.47231606908842D+03

 The electronic state is 1-A.
 Alpha  occ. eigenvalues --  -11.21646 -11.21624 -11.21589 -11.21586 -11.21436
 Alpha  occ. eigenvalues --  -11.21383 -11.21377 -11.21323 -11.21091 -11.21060
 Alpha  occ. eigenvalues --  -11.21042 -11.21035  -1.08461  -1.08410  -1.03569
 Alpha  occ. eigenvalues --   -1.03501  -0.96030  -0.95935  -0.87056  -0.86943
 Alpha  occ. eigenvalues --   -0.79617  -0.79582  -0.78289  -0.78209  -0.65099
 Alpha  occ. eigenvalues --   -0.65036  -0.61004  -0.60890  -0.59434  -0.59291
 Alpha  occ. eigenvalues --   -0.57764  -0.57444  -0.55317  -0.55207  -0.52812
 Alpha  occ. eigenvalues --   -0.52645  -0.52513  -0.52194  -0.49937  -0.49881
 Alpha  occ. eigenvalues --   -0.47970  -0.47835  -0.46666  -0.46588  -0.45872
 Alpha  occ. eigenvalues --   -0.45751  -0.45738  -0.45629  -0.43805  -0.43760
 Alpha virt. eigenvalues --    0.21173   0.23110   0.23427   0.24918   0.26132
 Alpha virt. eigenvalues --    0.26607   0.26814   0.27194   0.28301   0.29029
 Alpha virt. eigenvalues --    0.30788   0.31076   0.31428   0.31749   0.32018

 Mulliken charges:
               1
     1  C   -0.298280
     2  C   -0.301534
     3  C   -0.481272
     4  H    0.150066
     5  H    0.149723
     6  H    0.152898
     7  H    0.151480
     8  H    0.155067
     9  H    0.155407
    10  H    0.166268
    11  C   -0.298362
    12  C   -0.299677
    13  C   -0.475733
    14  H    0.149578
    15  H    0.149306
    16  H    0.152082
    17  H    0.152001
    18  H    0.155105
    19  H    0.155229
    20  H    0.160370
    21  C   -0.299924
    22  C   -0.299168
    23  C   -0.483532
    24  H    0.149399
    25  H    0.151490
    26  H    0.151846
    27  H    0.151598
    28  H    0.163584
    29  H    0.154824
    30  H    0.160313
    31  C   -0.298199
    32  C   -0.299717
    33  C   -0.475678
    34  H    0.149459
    35  H    0.149510
    36  H    0.151815
    37  H    0.152170
    38  H    0.155157
    39  H    0.155129
    40  H    0.160200
 Sum of Mulliken charges =  -0.00000

 Dipole moment (field-independent basis, Debye):
    X=              0.0195    Y=             -0.0068    Z=             -0.0090  Tot=              0.0225
 Quadrupole moment (field-independent basis, Debye-Ang):
   XX=            -84.5825   YY=            -86.7676   ZZ=            -83.4267
   XY=              0.5516   XZ=              0.4818   YZ=             -0.2915

 Normal termination of Gaussian 16 at Wed May  5 15:15:27 2021.
