 Gaussian 16, Revision A.03,
 Gaussian 16:  EM64L-G16RevA.03 25-Dec-2016

 -------------
 #p 6-31g* mp2
 -------------

 ------------------------------------------------------
 Input file generated by CHIRIPA (05-May-2021 14:57:21)
 ------------------------------------------------------
 Symbolic Z-matrix:
 Charge =  0 Multiplicity = 1

                         Standard orientation:
 ---------------------------------------------------------------------
 Center     Atomic      Atomic             Coordinates (Angstroms)
 Number     Number       Type             X           Y           Z
 ---------------------------------------------------------------------
      1          6           0        4.694001   -1.926467    0.498182
      2          6           0        4.123509   -1.699909   -0.758692
      3          6           0        3.361064   -0.552326   -0.995923
      4          6           0        3.188646    0.351754    0.051073
      5          6           0        3.744152    0.154186    1.314272
      6          6           0        4.502839   -1.000329    1.528835
      7          1           0        5.284826   -2.820630    0.673664
      8          1           0        4.270299   -2.417435   -1.560973
      9          1           0        2.908035   -0.352087   -1.959296
     10          1           0        3.580241    0.887631    2.094406
     11          1           0        4.944698   -1.173673    2.505952
     12          7           0        2.383470    1.570318   -0.188074
     13          8           0        2.246415    2.351465    0.750895
     14          8           0        1.904673    1.721208   -1.309957
     15          6           0       -5.656109   -0.564794    0.771794
     16          6           0       -4.915358   -1.617319    0.224069
     17          6           0       -3.620781   -1.399564   -0.256765
     18          6           0       -3.095634   -0.110908   -0.173850
     19          6           0       -3.808619    0.958269    0.366337
     20          6           0       -5.101354    0.717380    0.841057
     21          1           0       -6.661051   -0.742936    1.142942
     22          1           0       -5.343638   -2.614106    0.168993
     23          1           0       -3.025220   -2.196286   -0.685669
     24          1           0       -3.354820    1.941007    0.407687
     25          1           0       -5.674314    1.536683    1.265916
     26          7           0       -1.726098    0.131865   -0.679651
     27          8           0       -1.286126    1.276383   -0.595162
     28          8           0       -1.118561   -0.826966   -1.151011
 ---------------------------------------------------------------------

 SCF Done:  E(RHF) =  -868.336014958     A.U. after   16 cycles
 E2 =    -0.2600553577D+01 EUMP2 =    -0.87093656853450D+03

 The electronic state is 1-A.
 Alpha  occ. eigenvalues --  -20.60179 -20.60078 -20.59277 -20.59123 -15.85184
 Alpha  occ. eigenvalues --  -15.84261 -11.30755 -11.29982 -11.27383 -11.27313
 Alpha  occ. eigenvalues --  -11.27145 -11.26659 -11.26553 -11.26475 -11.26436
 Alpha  occ. eigenvalues --  -11.26393 -11.25764 -11.25698  -1.59208  -1.58245
 Alpha  occ. eigenvalues --   -1.38753  -1.37799  -1.18952  -1.18203  -1.08311
 Alpha  occ. eigenvalues --   -1.07541  -1.04385  -1.03668  -0.95108  -0.94314
 Alpha  occ. eigenvalues --   -0.85773  -0.85053  -0.81934  -0.81157  -0.76950
 Alpha  occ. eigenvalues --   -0.76126  -0.71398  -0.70564  -0.70496  -0.70061
 Alpha  occ. eigenvalues --   -0.69538  -0.69337  -0.64598  -0.64390  -0.63863
 Alpha  occ. eigenvalues --   -0.63696  -0.61727  -0.61013  -0.54886  -0.54194
 Alpha  occ. eigenvalues --   -0.52707  -0.52480  -0.51972  -0.51779  -0.48202
 Alpha  occ. eigenvalues --   -0.48150  -0.47253  -0.47197  -0.44117  -0.43076
 Alpha  occ. eigenvalues --   -0.36951  -0.36217  -0.35999  -0.35280
 Alpha virt. eigenvalues --    0.05584   0.06443   0.11652   0.12369   0.17035
 Alpha virt. eigenvalues --    0.17848   0.21762   0.22375   0.27657   0.28257
 Alpha virt. eigenvalues --    0.28683   0.29320   0.31293   0.31872   0.32950

 Mulliken charges:
               1
     1  C   -0.172377
     2  C   -0.219221
     3  C   -0.164458
     4  C    0.160593
     5  C   -0.172527
     6  C   -0.219237
     7  H    0.220722
     8  H    0.220185
     9  H    0.279592
    10  H    0.272317
    11  H    0.218450
    12  N    0.490349
    13  O   -0.469014
    14  O   -0.445744
    15  C   -0.171536
    16  C   -0.218668
    17  C   -0.171744
    18  C    0.158507
    19  C   -0.171070
    20  C   -0.218730
    21  H    0.223971
    22  H    0.221242
    23  H    0.273188
    24  H    0.279404
    25  H    0.223039
    26  N    0.485927
    27  O   -0.444572
    28  O   -0.468587
 Sum of Mulliken charges =  -0.00000

 Dipole moment (field-independent basis, Debye):
    X=             -2.1796    Y=             -4.8611    Z=              2.3914  Tot=              5.8395
 Quadrupole moment (field-independent basis, Debye-Ang):
   XX=            -60.2010   YY=           -103.5410   ZZ=           -101.5611
   XY=             -9.9031   XZ=             -1.7958   YZ=              2.8195

 Normal termination of Gaussian 16 at Wed May  5 16:11:11 2021.
