 Gaussian 16, Revision A.03,
 Gaussian 16:  EM64L-G16RevA.03 25-Dec-2016

 -------------
 #p 6-31g* mp2
 -------------

 ------------------------------------------------------
 Input file generated by CHIRIPA (05-May-2021 14:51:10)
 ------------------------------------------------------
 Symbolic Z-matrix:
 Charge =  0 Multiplicity = 1

                         Standard orientation:
 ---------------------------------------------------------------------
 Center     Atomic      Atomic             Coordinates (Angstroms)
 Number     Number       Type             X           Y           Z
 ---------------------------------------------------------------------
      1          6           0       -3.089933   -0.713028    0.317967
      2          6           0       -1.747702   -0.527249   -0.390473
      3          6           0       -0.622162   -1.337172    0.253715
      4          1           0       -2.984207   -0.422499    1.372177
      5          1           0       -3.354910   -1.779403    0.312690
      6          1           0       -1.486002    0.538631   -0.385078
      7          1           0       -1.856686   -0.818073   -1.443165
      8          1           0       -0.857322   -2.406257    0.234816
      9          1           0       -0.484533   -1.041845    1.298914
     10          1           0        0.328293   -1.189584   -0.268502
     11          6           0       -4.225037    0.090308   -0.314425
     12          6           0       -5.567268   -0.095471    0.394014
     13          6           0       -6.692807    0.714452   -0.250174
     14          1           0       -3.960059    1.156682   -0.309149
     15          1           0       -4.330763   -0.200222   -1.368636
     16          1           0       -5.458284    0.195353    1.446706
     17          1           0       -5.828967   -1.161351    0.388619
     18          1           0       -6.830437    0.419124   -1.295373
     19          1           0       -6.457647    1.783537   -0.231275
     20          1           0       -7.643263    0.566863    0.272043
     21          6           0        4.135042   -0.269711   -0.134917
     22          6           0        3.505784   -1.640917    0.113703
     23          6           0        4.473532   -2.793302   -0.156974
     24          1           0        4.487431   -0.218055   -1.174195
     25          1           0        5.023647   -0.160848    0.502206
     26          1           0        2.617836   -1.746612   -0.522689
     27          1           0        3.154680   -1.689246    1.152455
     28          1           0        5.354978   -2.715642    0.487715
     29          1           0        4.815084   -2.773333   -1.196947
     30          1           0        4.003114   -3.764233    0.027034
     31          6           0        3.179928    0.892431    0.131376
     32          6           0        3.809186    2.263637   -0.117244
     33          6           0        2.841438    3.416022    0.153432
     34          1           0        2.291323    0.783569   -0.505747
     35          1           0        2.827540    0.840774    1.170655
     36          1           0        4.160290    2.311966   -1.155996
     37          1           0        4.697133    2.369332    0.519148
     38          1           0        2.499886    3.396053    1.193406
     39          1           0        1.959992    3.338362   -0.491256
     40          1           0        3.311856    4.386953   -0.030576
 ---------------------------------------------------------------------

 SCF Done:  E(RHF) =  -470.733014401     A.U. after   11 cycles
 E2 =    -0.1582924539D+01 EUMP2 =    -0.47231593894019D+03

 The electronic state is 1-A.
 Alpha  occ. eigenvalues --  -11.21604 -11.21588 -11.21569 -11.21561 -11.21399
 Alpha  occ. eigenvalues --  -11.21383 -11.21339 -11.21324 -11.21080 -11.21061
 Alpha  occ. eigenvalues --  -11.21046 -11.20975  -1.08433  -1.08400  -1.03530
 Alpha  occ. eigenvalues --   -1.03491  -0.95972  -0.95947  -0.87004  -0.86952
 Alpha  occ. eigenvalues --   -0.79644  -0.79514  -0.78252  -0.78204  -0.65069
 Alpha  occ. eigenvalues --   -0.65036  -0.60937  -0.60890  -0.59450  -0.59221
 Alpha  occ. eigenvalues --   -0.57592  -0.57554  -0.55265  -0.55226  -0.52797
 Alpha  occ. eigenvalues --   -0.52564  -0.52387  -0.52370  -0.49921  -0.49881
 Alpha  occ. eigenvalues --   -0.47966  -0.47835  -0.46621  -0.46595  -0.45779
 Alpha  occ. eigenvalues --   -0.45761  -0.45703  -0.45670  -0.43796  -0.43644
 Alpha virt. eigenvalues --    0.21547   0.23121   0.23882   0.24230   0.25994
 Alpha virt. eigenvalues --    0.26511   0.26802   0.27625   0.27937   0.29283
 Alpha virt. eigenvalues --    0.30594   0.31392   0.31620   0.31903   0.32048

 Mulliken charges:
               1
     1  C   -0.298439
     2  C   -0.299678
     3  C   -0.481834
     4  H    0.149649
     5  H    0.149438
     6  H    0.151815
     7  H    0.151237
     8  H    0.154287
     9  H    0.155040
    10  H    0.167988
    11  C   -0.298201
    12  C   -0.299605
    13  C   -0.475689
    14  H    0.149519
    15  H    0.149487
    16  H    0.151935
    17  H    0.151877
    18  H    0.155119
    19  H    0.155188
    20  H    0.160205
    21  C   -0.298416
    22  C   -0.303624
    23  C   -0.475298
    24  H    0.149252
    25  H    0.149495
    26  H    0.155944
    27  H    0.152906
    28  H    0.155013
    29  H    0.154831
    30  H    0.160467
    31  C   -0.300063
    32  C   -0.299635
    33  C   -0.475647
    34  H    0.151063
    35  H    0.150038
    36  H    0.151906
    37  H    0.152035
    38  H    0.155067
    39  H    0.155046
    40  H    0.160282
 Sum of Mulliken charges =  -0.00000

 Dipole moment (field-independent basis, Debye):
    X=              0.0239    Y=             -0.0044    Z=              0.0092  Tot=              0.0260
 Quadrupole moment (field-independent basis, Debye-Ang):
   XX=            -85.9262   YY=            -85.3383   ZZ=            -83.5824
   XY=              1.1882   XZ=              0.2254   YZ=              0.5715

 Normal termination of Gaussian 16 at Thu May  6 05:24:49 2021.
