 Gaussian 16, Revision A.03,
 Gaussian 16:  EM64L-G16RevA.03 25-Dec-2016

 -------------
 #p 6-31g* mp2
 -------------

 ------------------------------------------------------
 Input file generated by CHIRIPA (05-May-2021 14:53:15)
 ------------------------------------------------------
 Symbolic Z-matrix:
 Charge =  0 Multiplicity = 1

                         Standard orientation:
 ---------------------------------------------------------------------
 Center     Atomic      Atomic             Coordinates (Angstroms)
 Number     Number       Type             X           Y           Z
 ---------------------------------------------------------------------
      1          6           0       -3.241235    0.641781    0.195049
      2          6           0       -3.018807    2.008718   -0.453020
      3          6           0       -3.575377    3.158747    0.386895
      4          1           0       -4.317159    0.491206    0.358330
      5          1           0       -2.770250    0.633411    1.187771
      6          1           0       -3.488883    2.014043   -1.444794
      7          1           0       -1.943303    2.155976   -0.614952
      8          1           0       -3.098777    3.181939    1.372245
      9          1           0       -4.653139    3.039199    0.537689
     10          1           0       -3.405534    4.126636   -0.094983
     11          6           0       -2.690300   -0.517967   -0.632709
     12          6           0       -2.912728   -1.884905    0.015360
     13          6           0       -2.356158   -3.034934   -0.824555
     14          1           0       -3.161285   -0.509597   -1.625431
     15          1           0       -1.614377   -0.367392   -0.795990
     16          1           0       -3.988232   -2.032163    0.177292
     17          1           0       -2.442652   -1.890229    1.007134
     18          1           0       -1.278397   -2.915386   -0.975348
     19          1           0       -2.832758   -3.058126   -1.809905
     20          1           0       -2.526002   -4.002822   -0.342677
     21          6           0        1.094294   -2.151915    0.838777
     22          6           0        2.314528   -2.236975    0.160312
     23          6           0        3.000745   -1.078055   -0.214602
     24          6           0        2.435213    0.154999    0.106399
     25          6           0        1.221272    0.272531    0.781545
     26          6           0        0.552516   -0.899641    1.146685
     27          1           0        0.568007   -3.057338    1.126222
     28          1           0        2.737663   -3.208155   -0.080130
     29          1           0        3.947005   -1.114979   -0.740574
     30          1           0        0.824562    1.254896    1.007367
     31          1           0       -0.394967   -0.830550    1.673513
     32          7           0        3.152437    1.388910   -0.285332
     33          8           0        2.633021    2.463205    0.009173
     34          8           0        4.220434    1.258390   -0.879458
 ---------------------------------------------------------------------

 SCF Done:  E(RHF) =  -669.534485632     A.U. after   15 cycles
 E2 =    -0.2094765156D+01 EUMP2 =    -0.67162925078754D+03

 The electronic state is 1-A.
 Alpha  occ. eigenvalues --  -20.60834 -20.60829 -15.85888 -11.31286 -11.27843
 Alpha  occ. eigenvalues --  -11.27836 -11.27564 -11.26869 -11.26836 -11.22478
 Alpha  occ. eigenvalues --  -11.22047 -11.21973 -11.21908 -11.21847 -11.21349
 Alpha  occ. eigenvalues --   -1.59909  -1.39461  -1.19462  -1.09092  -1.08823
 Alpha  occ. eigenvalues --   -1.04868  -1.04126  -0.96564  -0.95671  -0.87584
 Alpha  occ. eigenvalues --   -0.86258  -0.82505  -0.80205  -0.78849  -0.77557
 Alpha  occ. eigenvalues --   -0.72105  -0.71232  -0.70561  -0.65967  -0.65109
 Alpha  occ. eigenvalues --   -0.64713  -0.62200  -0.61485  -0.59937  -0.58157
 Alpha  occ. eigenvalues --   -0.55938  -0.55274  -0.53270  -0.53191  -0.52973
 Alpha  occ. eigenvalues --   -0.52934  -0.50503  -0.48870  -0.48859  -0.48492
 Alpha  occ. eigenvalues --   -0.47250  -0.46381  -0.46304  -0.44859  -0.44373
 Alpha  occ. eigenvalues --   -0.37398  -0.36412
 Alpha virt. eigenvalues --    0.04929   0.11106   0.16299   0.18906   0.22723
 Alpha virt. eigenvalues --    0.23840   0.24733   0.26154   0.26829   0.28727
 Alpha virt. eigenvalues --    0.29449   0.30847   0.31144   0.31463   0.32045

 Mulliken charges:
               1
     1  C   -0.298864
     2  C   -0.301748
     3  C   -0.475676
     4  H    0.152450
     5  H    0.139634
     6  H    0.154977
     7  H    0.154617
     8  H    0.153632
     9  H    0.155395
    10  H    0.164859
    11  C   -0.306194
    12  C   -0.299090
    13  C   -0.481855
    14  H    0.153802
    15  H    0.157512
    16  H    0.156441
    17  H    0.138342
    18  H    0.157291
    19  H    0.160413
    20  H    0.157854
    21  C   -0.172361
    22  C   -0.219563
    23  C   -0.170838
    24  C    0.159281
    25  C   -0.174133
    26  C   -0.219690
    27  H    0.228767
    28  H    0.224320
    29  H    0.276042
    30  H    0.276440
    31  H    0.230135
    32  N    0.488018
    33  O   -0.460229
    34  O   -0.459982
 Sum of Mulliken charges =  -0.00000

 Dipole moment (field-independent basis, Debye):
    X=             -2.5342    Y=             -4.2741    Z=              1.2504  Tot=              5.1238
 Quadrupole moment (field-independent basis, Debye-Ang):
   XX=           -103.7627   YY=            -95.7238   ZZ=            -94.3193
   XY=            -13.3131   XZ=              2.4121   YZ=              0.6246

 Normal termination of Gaussian 16 at Thu May  6 17:09:45 2021.
