 Gaussian 16, Revision A.03,
 Gaussian 16:  EM64L-G16RevA.03 25-Dec-2016

 -------------
 #p 6-31g* mp2
 -------------

 ------------------------------------------------------
 Input file generated by CHIRIPA (05-May-2021 14:55:19)
 ------------------------------------------------------
 Symbolic Z-matrix:
 Charge =  0 Multiplicity = 1

                         Standard orientation:
 ---------------------------------------------------------------------
 Center     Atomic      Atomic             Coordinates (Angstroms)
 Number     Number       Type             X           Y           Z
 ---------------------------------------------------------------------
      1          6           0        1.267589   -0.264073    1.868774
      2          6           0        1.931787   -1.453332    1.550927
      3          6           0        2.968674   -1.458690    0.613172
      4          6           0        3.316996   -0.251289    0.009727
      5          6           0        2.674315    0.949929    0.305236
      6          6           0        1.640316    0.931653    1.246012
      7          1           0        0.463232   -0.269091    2.598418
      8          1           0        1.644452   -2.383435    2.032998
      9          1           0        3.499704   -2.364964    0.348425
     10          1           0        2.983193    1.861443   -0.191911
     11          1           0        1.126256    1.856758    1.490898
     12          7           0        4.413173   -0.244452   -0.984632
     13          8           0        4.701093    0.832490   -1.502257
     14          8           0        4.963681   -1.316163   -1.227556
     15          6           0       -4.430330   -0.263283    0.036016
     16          6           0       -5.521423   -0.708490   -0.938300
     17          6           0       -6.344799   -1.882432   -0.407540
     18          1           0       -3.766604   -1.113047    0.246517
     19          1           0       -4.894010    0.015560    0.992386
     20          1           0       -5.055957   -0.985094   -1.892998
     21          1           0       -6.182518    0.142484   -1.146655
     22          1           0       -6.835594   -1.614406    0.533674
     23          1           0       -5.702632   -2.748391   -0.216910
     24          1           0       -7.118939   -2.184398   -1.119848
     25          6           0       -3.598682    0.909468   -0.480456
     26          6           0       -2.507589    1.354677    0.493860
     27          6           0       -1.684214    2.528618   -0.036900
     28          1           0       -3.135003    0.630626   -1.436826
     29          1           0       -4.262410    1.759233   -0.690956
     30          1           0       -1.846495    0.503702    0.702215
     31          1           0       -2.973055    1.631280    1.448558
     32          1           0       -2.326380    3.394577   -0.227529
     33          1           0       -1.193418    2.260592   -0.978112
     34          1           0       -0.910073    2.830584    0.675409
 ---------------------------------------------------------------------

 SCF Done:  E(RHF) =  -669.535386861     A.U. after   15 cycles
 E2 =    -0.2091741267D+01 EUMP2 =    -0.67162712812783D+03

 The electronic state is 1-A.
 Alpha  occ. eigenvalues --  -20.60769 -20.60764 -15.85822 -11.31196 -11.27759
 Alpha  occ. eigenvalues --  -11.27745 -11.27497 -11.26781 -11.26751 -11.22386
 Alpha  occ. eigenvalues --  -11.22025 -11.21979 -11.21926 -11.21897 -11.21449
 Alpha  occ. eigenvalues --   -1.59844  -1.39397  -1.19365  -1.09017  -1.08758
 Alpha  occ. eigenvalues --   -1.04768  -1.04131  -0.96582  -0.95592  -0.87604
 Alpha  occ. eigenvalues --   -0.86162  -0.82423  -0.80206  -0.78814  -0.77472
 Alpha  occ. eigenvalues --   -0.72040  -0.71167  -0.70467  -0.65641  -0.65014
 Alpha  occ. eigenvalues --   -0.64806  -0.62166  -0.61505  -0.59959  -0.58192
 Alpha  occ. eigenvalues --   -0.55845  -0.55271  -0.53416  -0.53074  -0.53070
 Alpha  occ. eigenvalues --   -0.52664  -0.50498  -0.48804  -0.48795  -0.48512
 Alpha  occ. eigenvalues --   -0.47222  -0.46360  -0.46262  -0.44801  -0.44388
 Alpha  occ. eigenvalues --   -0.37333  -0.36356
 Alpha virt. eigenvalues --    0.05039   0.11208   0.16475   0.20028   0.22545
 Alpha virt. eigenvalues --    0.23922   0.25761   0.26007   0.26613   0.28204
 Alpha virt. eigenvalues --    0.28656   0.29621   0.30935   0.31589   0.32106

 Mulliken charges:
               1
     1  C   -0.172827
     2  C   -0.219127
     3  C   -0.171201
     4  C    0.158677
     5  C   -0.172784
     6  C   -0.217658
     7  H    0.226843
     8  H    0.223440
     9  H    0.275554
    10  H    0.275971
    11  H    0.227802
    12  N    0.488045
    13  O   -0.460270
    14  O   -0.460488
    15  C   -0.298503
    16  C   -0.300212
    17  C   -0.475968
    18  H    0.148343
    19  H    0.149084
    20  H    0.153585
    21  H    0.153034
    22  H    0.155106
    23  H    0.154907
    24  H    0.161989
    25  C   -0.298688
    26  C   -0.303265
    27  C   -0.475391
    28  H    0.152759
    29  H    0.151631
    30  H    0.149959
    31  H    0.150700
    32  H    0.159252
    33  H    0.160880
    34  H    0.148820
 Sum of Mulliken charges =  -0.00000

 Dipole moment (field-independent basis, Debye):
    X=             -3.9785    Y=             -0.0366    Z=              3.4184  Tot=              5.2455
 Quadrupole moment (field-independent basis, Debye-Ang):
   XX=           -120.6844   YY=            -90.2102   ZZ=            -95.2264
   XY=             -0.8039   XZ=             11.8558   YZ=             -1.2686

 Normal termination of Gaussian 16 at Thu May  6 10:46:35 2021.
