 Gaussian 16, Revision A.03,
 Gaussian 16:  EM64L-G16RevA.03 25-Dec-2016

 -------------
 #p 6-31g* mp2
 -------------

 ------------------------------------------------------
 Input file generated by CHIRIPA (05-May-2021 14:57:27)
 ------------------------------------------------------
 Symbolic Z-matrix:
 Charge =  0 Multiplicity = 1

                         Standard orientation:
 ---------------------------------------------------------------------
 Center     Atomic      Atomic             Coordinates (Angstroms)
 Number     Number       Type             X           Y           Z
 ---------------------------------------------------------------------
      1          6           0        1.333280    2.507430    0.408199
      2          6           0        2.059733    1.918051    1.448112
      3          6           0        2.843272    0.784283    1.213196
      4          6           0        2.877519    0.263841   -0.079575
      5          6           0        2.165039    0.828301   -1.136480
      6          6           0        1.388155    1.961636   -0.878509
      7          1           0        0.727192    3.388000    0.599642
      8          1           0        2.019005    2.339762    2.448385
      9          1           0        3.415642    0.307928    1.999896
     10          1           0        2.225546    0.385166   -2.123084
     11          1           0        0.825027    2.417252   -1.688045
     12          7           0        3.703494   -0.936199   -0.340473
     13          8           0        3.716859   -1.375500   -1.488285
     14          8           0        4.321889   -1.414766    0.607787
     15          6           0       -4.510233    1.303193   -0.313480
     16          6           0       -3.156010    1.649525   -0.365019
     17          6           0       -2.167363    0.679951   -0.172531
     18          6           0       -2.570383   -0.632239    0.070417
     19          6           0       -3.911428   -1.008538    0.127731
     20          6           0       -4.882963   -0.022396   -0.067702
     21          1           0       -5.271590    2.062817   -0.464152
     22          1           0       -2.863615    2.678207   -0.555715
     23          1           0       -1.111735    0.920505   -0.207169
     24          1           0       -4.172048   -2.042289    0.319702
     25          1           0       -5.933912   -0.294252   -0.027125
     26          7           0       -1.532805   -1.667453    0.275755
     27          8           0       -1.913914   -2.816476    0.488210
     28          8           0       -0.358089   -1.310228    0.220355
 ---------------------------------------------------------------------

 SCF Done:  E(RHF) =  -868.336240509     A.U. after   16 cycles
 E2 =    -0.2603250579D+01 EUMP2 =    -0.87093949108807D+03

 The electronic state is 1-A.
 Alpha  occ. eigenvalues --  -20.60910 -20.60896 -20.60104 -20.60099 -15.85961
 Alpha  occ. eigenvalues --  -15.85169 -11.31411 -11.30743 -11.28011 -11.27916
 Alpha  occ. eigenvalues --  -11.27818 -11.27443 -11.27386 -11.27376 -11.27120
 Alpha  occ. eigenvalues --  -11.27036 -11.26600 -11.26501  -1.59977  -1.59157
 Alpha  occ. eigenvalues --   -1.39529  -1.38714  -1.19619  -1.19004  -1.09003
 Alpha  occ. eigenvalues --   -1.08407  -1.05052  -1.04476  -0.95815  -0.95184
 Alpha  occ. eigenvalues --   -0.86446  -0.85888  -0.82657  -0.82026  -0.77689
 Alpha  occ. eigenvalues --   -0.76984  -0.72204  -0.71415  -0.71306  -0.70738
 Alpha  occ. eigenvalues --   -0.70430  -0.70217  -0.65279  -0.65089  -0.64707
 Alpha  occ. eigenvalues --   -0.64543  -0.62426  -0.61817  -0.55567  -0.55086
 Alpha  occ. eigenvalues --   -0.53372  -0.53364  -0.52613  -0.52471  -0.48947
 Alpha  occ. eigenvalues --   -0.48909  -0.48181  -0.48135  -0.44923  -0.44079
 Alpha  occ. eigenvalues --   -0.37619  -0.37024  -0.36662  -0.36013
 Alpha virt. eigenvalues --    0.04822   0.05613   0.10956   0.11480   0.16314
 Alpha virt. eigenvalues --    0.16964   0.20464   0.21951   0.26356   0.27608
 Alpha virt. eigenvalues --    0.28181   0.29239   0.30874   0.31053   0.32814

 Mulliken charges:
               1
     1  C   -0.177032
     2  C   -0.215343
     3  C   -0.164174
     4  C    0.172085
     5  C   -0.154618
     6  C   -0.236817
     7  H    0.219263
     8  H    0.222050
     9  H    0.276952
    10  H    0.276592
    11  H    0.218160
    12  N    0.489703
    13  O   -0.459738
    14  O   -0.460292
    15  C   -0.169976
    16  C   -0.224900
    17  C   -0.181348
    18  C    0.154471
    19  C   -0.168912
    20  C   -0.219560
    21  H    0.225349
    22  H    0.216173
    23  H    0.292263
    24  H    0.277094
    25  H    0.224366
    26  N    0.488493
    27  O   -0.457724
    28  O   -0.462579
 Sum of Mulliken charges =  -0.00000

 Dipole moment (field-independent basis, Debye):
    X=             -6.3018    Y=              7.4673    Z=              0.2613  Tot=              9.7746
 Quadrupole moment (field-independent basis, Debye-Ang):
   XX=           -100.2259   YY=           -106.5936   ZZ=           -101.2599
   XY=              7.0496   XZ=              5.5760   YZ=              0.1228

 Normal termination of Gaussian 16 at Thu May  6 16:32:08 2021.
