 Gaussian 16, Revision A.03,
 Gaussian 16:  EM64L-G16RevA.03 25-Dec-2016

 -------------
 #p 6-31g* mp2
 -------------

 ------------------------------------------------------
 Input file generated by CHIRIPA (05-May-2021 14:57:26)
 ------------------------------------------------------
 Symbolic Z-matrix:
 Charge =  0 Multiplicity = 1

                         Standard orientation:
 ---------------------------------------------------------------------
 Center     Atomic      Atomic             Coordinates (Angstroms)
 Number     Number       Type             X           Y           Z
 ---------------------------------------------------------------------
      1          6           0        4.552990   -1.552895   -0.548088
      2          6           0        4.347551   -0.589749   -1.541399
      3          6           0        3.500965    0.498666   -1.310764
      4          6           0        2.873074    0.593115   -0.069748
      5          6           0        3.057517   -0.350152    0.939964
      6          6           0        3.908454   -1.430238    0.687245
      7          1           0        5.212329   -2.395167   -0.735829
      8          1           0        4.846786   -0.682439   -2.501721
      9          1           0        3.324060    1.258718   -2.062059
     10          1           0        2.545941   -0.230704    1.887298
     11          1           0        4.066129   -2.176718    1.460518
     12          7           0        1.974528    1.740963    0.186105
     13          8           0        1.433102    1.801336    1.287854
     14          8           0        1.828688    2.558539   -0.719951
     15          6           0       -0.972318   -1.317639    1.266599
     16          6           0       -1.551610   -0.123987    1.709467
     17          6           0       -2.686954    0.391599    1.077237
     18          6           0       -3.219240   -0.315603    0.000285
     19          6           0       -2.665013   -1.507346   -0.464334
     20          6           0       -1.529885   -2.004299    0.183022
     21          1           0       -0.090439   -1.710921    1.763605
     22          1           0       -1.120745    0.411416    2.550742
     23          1           0       -3.155661    1.313500    1.399464
     24          1           0       -3.117162   -2.018582   -1.305534
     25          1           0       -1.082119   -2.931535   -0.163078
     26          7           0       -4.421063    0.220362   -0.677036
     27          8           0       -4.870893   -0.421663   -1.623658
     28          8           0       -4.890466    1.272327   -0.248472
 ---------------------------------------------------------------------

 SCF Done:  E(RHF) =  -868.338184331     A.U. after   16 cycles
 E2 =    -0.2600643707D+01 EUMP2 =    -0.87093882803769D+03

 The electronic state is 1-A.
 Alpha  occ. eigenvalues --  -20.61504 -20.61467 -20.60275 -20.60256 -15.86528
 Alpha  occ. eigenvalues --  -15.85315 -11.31924 -11.30644 -11.28566 -11.28425
 Alpha  occ. eigenvalues --  -11.28197 -11.27546 -11.27447 -11.27229 -11.27083
 Alpha  occ. eigenvalues --  -11.26986 -11.26328 -11.26092  -1.60538  -1.59341
 Alpha  occ. eigenvalues --   -1.40101  -1.38896  -1.20086  -1.18800  -1.09465
 Alpha  occ. eigenvalues --   -1.08227  -1.05502  -1.04175  -0.96306  -0.95070
 Alpha  occ. eigenvalues --   -0.86891  -0.85589  -0.83147  -0.81885  -0.78201
 Alpha  occ. eigenvalues --   -0.76920  -0.72764  -0.71849  -0.71538  -0.71194
 Alpha  occ. eigenvalues --   -0.70658  -0.69970  -0.65743  -0.65496  -0.64457
 Alpha  occ. eigenvalues --   -0.64169  -0.62854  -0.61511  -0.55977  -0.54788
 Alpha  occ. eigenvalues --   -0.53802  -0.53583  -0.52531  -0.52264  -0.49531
 Alpha  occ. eigenvalues --   -0.49488  -0.48297  -0.48290  -0.45500  -0.44309
 Alpha  occ. eigenvalues --   -0.38050  -0.37150  -0.36763  -0.35731
 Alpha virt. eigenvalues --    0.04322   0.05569   0.10516   0.11889   0.15826
 Alpha virt. eigenvalues --    0.17092   0.20064   0.21980   0.25886   0.27144
 Alpha virt. eigenvalues --    0.28081   0.29119   0.30602   0.31219   0.32227

 Mulliken charges:
               1
     1  C   -0.170849
     2  C   -0.218012
     3  C   -0.169990
     4  C    0.161679
     5  C   -0.174350
     6  C   -0.219810
     7  H    0.227655
     8  H    0.226503
     9  H    0.278703
    10  H    0.268734
    11  H    0.222840
    12  N    0.490418
    13  O   -0.467284
    14  O   -0.454230
    15  C   -0.174969
    16  C   -0.207255
    17  C   -0.170559
    18  C    0.158960
    19  C   -0.172943
    20  C   -0.218512
    21  H    0.215464
    22  H    0.232677
    23  H    0.277739
    24  H    0.272924
    25  H    0.218395
    26  N    0.488165
    27  O   -0.463053
    28  O   -0.459040
 Sum of Mulliken charges =  -0.00000

 Dipole moment (field-independent basis, Debye):
    X=              7.5738    Y=             -5.6586    Z=              1.4007  Tot=              9.5574
 Quadrupole moment (field-independent basis, Debye-Ang):
   XX=           -114.8471   YY=           -105.8767   ZZ=            -98.9041
   XY=             -5.1957   XZ=            -12.3727   YZ=              0.0562

 Normal termination of Gaussian 16 at Fri May  7 05:05:19 2021.
