 Gaussian 16, Revision A.03,
 Gaussian 16:  EM64L-G16RevA.03 25-Dec-2016

 -------------
 #p 6-31g* mp2
 -------------

 ------------------------------------------------------
 Input file generated by CHIRIPA (05-May-2021 14:57:26)
 ------------------------------------------------------
 Symbolic Z-matrix:
 Charge =  0 Multiplicity = 1

                         Standard orientation:
 ---------------------------------------------------------------------
 Center     Atomic      Atomic             Coordinates (Angstroms)
 Number     Number       Type             X           Y           Z
 ---------------------------------------------------------------------
      1          6           0       -0.804804    0.594107   -0.465142
      2          6           0       -1.780272    1.589475   -0.584413
      3          6           0       -3.133076    1.282254   -0.410963
      4          6           0       -3.476474   -0.036613   -0.117777
      5          6           0       -2.527969   -1.050492    0.007438
      6          6           0       -1.181102   -0.720382   -0.170117
      7          1           0        0.243780    0.841654   -0.601477
      8          1           0       -1.490949    2.611176   -0.813463
      9          1           0       -3.908879    2.033273   -0.497667
     10          1           0       -2.847096   -2.059999    0.236502
     11          1           0       -0.425703   -1.495448   -0.076900
     12          7           0       -4.905484   -0.373970    0.068020
     13          8           0       -5.182085   -1.543471    0.325696
     14          8           0       -5.721882    0.537499   -0.047547
     15          6           0        2.861239    2.449108    0.509296
     16          6           0        2.178093    1.513745    1.293471
     17          6           0        2.380675    0.143728    1.102265
     18          6           0        3.277665   -0.257593    0.113508
     19          6           0        3.973290    0.649928   -0.683863
     20          6           0        3.755082    2.014979   -0.475132
     21          1           0        2.697800    3.511441    0.664636
     22          1           0        1.483329    1.848008    2.058726
     23          1           0        1.865032   -0.601931    1.695159
     24          1           0        4.659597    0.286299   -1.438962
     25          1           0        4.287009    2.739136   -1.085619
     26          7           0        3.500401   -1.705342   -0.098189
     27          8           0        4.295943   -2.033224   -0.975823
     28          8           0        2.875221   -2.484790    0.617527
 ---------------------------------------------------------------------

 SCF Done:  E(RHF) =  -868.336883294     A.U. after   16 cycles
 E2 =    -0.2602861510D+01 EUMP2 =    -0.87093974480394D+03

 The electronic state is 1-A.
 Alpha  occ. eigenvalues --  -20.61950 -20.61917 -20.60790 -20.60779 -15.86978
 Alpha  occ. eigenvalues --  -15.85843 -11.32473 -11.31212 -11.28981 -11.28970
 Alpha  occ. eigenvalues --  -11.28718 -11.28013 -11.27986 -11.27840 -11.27764
 Alpha  occ. eigenvalues --  -11.27376 -11.26837 -11.26693  -1.61000  -1.59864
 Alpha  occ. eigenvalues --   -1.40550  -1.39417  -1.20661  -1.19393  -1.10004
 Alpha  occ. eigenvalues --   -1.08781  -1.06037  -1.04796  -0.96813  -0.95609
 Alpha  occ. eigenvalues --   -0.87405  -0.86188  -0.83619  -0.82440  -0.78661
 Alpha  occ. eigenvalues --   -0.77494  -0.73176  -0.72344  -0.72058  -0.71678
 Alpha  occ. eigenvalues --   -0.71191  -0.70517  -0.66250  -0.65968  -0.65030
 Alpha  occ. eigenvalues --   -0.64804  -0.63326  -0.62132  -0.56476  -0.55822
 Alpha  occ. eigenvalues --   -0.54058  -0.53851  -0.53114  -0.52864  -0.49949
 Alpha  occ. eigenvalues --   -0.49936  -0.48818  -0.48812  -0.45917  -0.44822
 Alpha  occ. eigenvalues --   -0.38672  -0.37984  -0.36975  -0.36421
 Alpha virt. eigenvalues --    0.03782   0.05072   0.09807   0.11253   0.15188
 Alpha virt. eigenvalues --    0.16642   0.20222   0.21628   0.25967   0.26646
 Alpha virt. eigenvalues --    0.27780   0.28477   0.29993   0.30732   0.31776

 Mulliken charges:
               1
     1  C   -0.176946
     2  C   -0.223218
     3  C   -0.170826
     4  C    0.157508
     5  C   -0.170249
     6  C   -0.230127
     7  H    0.235885
     8  H    0.218564
     9  H    0.274564
    10  H    0.278016
    11  H    0.232517
    12  N    0.488058
    13  O   -0.459224
    14  O   -0.461444
    15  C   -0.175205
    16  C   -0.224159
    17  C   -0.183852
    18  C    0.158987
    19  C   -0.171463
    20  C   -0.218040
    21  H    0.229796
    22  H    0.231101
    23  H    0.278923
    24  H    0.279814
    25  H    0.228499
    26  N    0.488176
    27  O   -0.454202
    28  O   -0.461457
 Sum of Mulliken charges =  -0.00000

 Dipole moment (field-independent basis, Debye):
    X=              4.6121    Y=              6.2423    Z=              0.1066  Tot=              7.7620
 Quadrupole moment (field-independent basis, Debye-Ang):
   XX=           -142.7088   YY=           -103.0992   ZZ=           -102.7185
   XY=             12.5293   XZ=              1.4036   YZ=             -1.4019

 Normal termination of Gaussian 16 at Fri May  7 00:31:30 2021.
