 Gaussian 16, Revision A.03,
 Gaussian 16:  EM64L-G16RevA.03 25-Dec-2016

 -------------
 #p 6-31g* mp2
 -------------

 ------------------------------------------------------
 Input file generated by CHIRIPA (05-May-2021 14:51:13)
 ------------------------------------------------------
 Symbolic Z-matrix:
 Charge =  0 Multiplicity = 1

                         Standard orientation:
 ---------------------------------------------------------------------
 Center     Atomic      Atomic             Coordinates (Angstroms)
 Number     Number       Type             X           Y           Z
 ---------------------------------------------------------------------
      1          6           0       -3.241155   -0.582155   -0.006904
      2          6           0       -4.717637   -0.975860    0.047697
      3          6           0       -4.973099   -2.189734    0.941588
      4          1           0       -2.653574   -1.436604   -0.369685
      5          1           0       -2.887645   -0.369583    1.011546
      6          1           0       -5.068619   -1.186285   -0.970708
      7          1           0       -5.301795   -0.120312    0.410209
      8          1           0       -4.649906   -1.987276    1.967823
      9          1           0       -4.415406   -3.059305    0.579060
     10          1           0       -6.034936   -2.453849    0.966170
     11          6           0       -2.969818    0.629708   -0.896562
     12          6           0       -1.493336    1.023413   -0.951162
     13          6           0       -1.237875    2.237288   -1.845054
     14          1           0       -3.323328    0.417137   -1.915011
     15          1           0       -3.557399    1.484158   -0.533780
     16          1           0       -0.909179    0.167865   -1.313674
     17          1           0       -1.142354    1.233838    0.067243
     18          1           0       -1.795568    3.106858   -1.482526
     19          1           0       -1.561067    2.034829   -2.871289
     20          1           0       -0.176037    2.501403   -1.869635
     21          6           0        3.508645   -0.191023   -0.175104
     22          6           0        4.308295   -1.488617   -0.053468
     23          6           0        5.109628   -1.809683   -1.315441
     24          1           0        2.827949   -0.266428   -1.034121
     25          1           0        4.197352    0.636786   -0.393759
     26          1           0        3.618444   -2.313505    0.166263
     27          1           0        4.987029   -1.410188    0.805476
     28          1           0        5.820235   -1.006388   -1.535334
     29          1           0        4.443872   -1.914836   -2.178178
     30          1           0        5.673701   -2.741268   -1.206661
     31          6           0        2.702328    0.143470    1.078569
     32          6           0        1.902678    1.441064    0.956934
     33          6           0        1.101346    1.762130    2.218906
     34          1           0        2.013621   -0.684340    1.297225
     35          1           0        3.383024    0.218874    1.937587
     36          1           0        1.223944    1.362635    0.097990
     37          1           0        2.592530    2.265952    0.737202
     38          1           0        1.767100    1.867283    3.081643
     39          1           0        0.390738    0.958834    2.438800
     40          1           0        0.537272    2.693714    2.110127
 ---------------------------------------------------------------------

 SCF Done:  E(RHF) =  -470.732655548     A.U. after   11 cycles
 E2 =    -0.1583855233D+01 EUMP2 =    -0.47231651078177D+03

 The electronic state is 1-A.
 Alpha  occ. eigenvalues --  -11.21626 -11.21616 -11.21589 -11.21500 -11.21436
 Alpha  occ. eigenvalues --  -11.21378 -11.21376 -11.21314 -11.21103 -11.21092
 Alpha  occ. eigenvalues --  -11.21082 -11.21065  -1.08481  -1.08387  -1.03618
 Alpha  occ. eigenvalues --   -1.03463  -0.96030  -0.95954  -0.87028  -0.86980
 Alpha  occ. eigenvalues --   -0.79699  -0.79527  -0.78342  -0.78159  -0.65169
 Alpha  occ. eigenvalues --   -0.64985  -0.61163  -0.60794  -0.59478  -0.59216
 Alpha  occ. eigenvalues --   -0.57723  -0.57460  -0.55339  -0.55209  -0.52714
 Alpha  occ. eigenvalues --   -0.52654  -0.52451  -0.52380  -0.49959  -0.49895
 Alpha  occ. eigenvalues --   -0.47998  -0.47851  -0.46705  -0.46549  -0.45935
 Alpha  occ. eigenvalues --   -0.45755  -0.45714  -0.45501  -0.43815  -0.43762
 Alpha virt. eigenvalues --    0.21031   0.23097   0.23601   0.24310   0.25910
 Alpha virt. eigenvalues --    0.26402   0.26793   0.27711   0.28425   0.29163
 Alpha virt. eigenvalues --    0.30837   0.31523   0.31565   0.31749   0.32398

 Mulliken charges:
               1
     1  C   -0.298505
     2  C   -0.299666
     3  C   -0.475749
     4  H    0.149300
     5  H    0.149381
     6  H    0.152029
     7  H    0.152125
     8  H    0.155253
     9  H    0.155097
    10  H    0.160390
    11  C   -0.297233
    12  C   -0.307247
    13  C   -0.478538
    14  H    0.149458
    15  H    0.149863
    16  H    0.150662
    17  H    0.160009
    18  H    0.155521
    19  H    0.155595
    20  H    0.162333
    21  C   -0.298439
    22  C   -0.299627
    23  C   -0.475683
    24  H    0.149331
    25  H    0.149438
    26  H    0.151891
    27  H    0.151977
    28  H    0.155178
    29  H    0.155040
    30  H    0.160206
    31  C   -0.297458
    32  C   -0.310369
    33  C   -0.477049
    34  H    0.149537
    35  H    0.149306
    36  H    0.165188
    37  H    0.151213
    38  H    0.155766
    39  H    0.154705
    40  H    0.159772
 Sum of Mulliken charges =  -0.00000

 Dipole moment (field-independent basis, Debye):
    X=             -0.0239    Y=              0.0106    Z=             -0.0050  Tot=              0.0266
 Quadrupole moment (field-independent basis, Debye-Ang):
   XX=            -84.7206   YY=            -85.0193   ZZ=            -85.1233
   XY=              0.2419   XZ=              0.9002   YZ=              0.9005

 Normal termination of Gaussian 16 at Wed May  5 15:22:04 2021.
