 Gaussian 16, Revision A.03,
 Gaussian 16:  EM64L-G16RevA.03 25-Dec-2016

 -------------
 #p 6-31g* mp2
 -------------

 ------------------------------------------------------
 Input file generated by CHIRIPA (05-May-2021 14:55:22)
 ------------------------------------------------------
 Symbolic Z-matrix:
 Charge =  0 Multiplicity = 1

                         Standard orientation:
 ---------------------------------------------------------------------
 Center     Atomic      Atomic             Coordinates (Angstroms)
 Number     Number       Type             X           Y           Z
 ---------------------------------------------------------------------
      1          6           0       -1.956860    1.937833    0.280394
      2          6           0       -3.087311    2.004844   -0.540648
      3          6           0       -3.929642    0.897877   -0.680832
      4          6           0       -3.610079   -0.265384    0.017734
      5          6           0       -2.491092   -0.363265    0.843311
      6          6           0       -1.662876    0.756076    0.968540
      7          1           0       -1.308000    2.802558    0.383484
      8          1           0       -3.318089    2.921303   -1.076268
      9          1           0       -4.811249    0.922297   -1.309791
     10          1           0       -2.287023   -1.290631    1.364624
     11          1           0       -0.785629    0.701156    1.606871
     12          7           0       -4.494345   -1.443830   -0.122757
     13          8           0       -4.190874   -2.457019    0.503335
     14          8           0       -5.474160   -1.331994   -0.856305
     15          6           0        4.960481   -0.372558    0.250414
     16          6           0        6.071588   -0.750624   -0.729632
     17          6           0        7.116537   -1.678551   -0.109286
     18          1           0        5.405649    0.110813    1.130825
     19          1           0        4.471417   -1.288306    0.610440
     20          1           0        6.557502    0.165636   -1.088760
     21          1           0        5.623706   -1.232979   -1.607898
     22          1           0        6.651184   -2.608561    0.232955
     23          1           0        7.590284   -1.202000    0.755042
     24          1           0        7.901450   -1.936121   -0.827219
     25          6           0        3.908233    0.554732   -0.355089
     26          6           0        2.797125    0.932797    0.624957
     27          6           0        1.752177    1.860725    0.004611
     28          1           0        4.397297    1.470480   -0.715115
     29          1           0        3.463065    0.071362   -1.235499
     30          1           0        3.245007    1.415153    1.503223
     31          1           0        2.311213    0.016538    0.984086
     32          1           0        1.278429    1.384174   -0.859716
     33          1           0        2.217530    2.790735   -0.337629
     34          1           0        0.967263    2.118296    0.722545
 ---------------------------------------------------------------------

 SCF Done:  E(RHF) =  -669.534235184     A.U. after   15 cycles
 E2 =    -0.2092109529D+01 EUMP2 =    -0.67162634471321D+03

 The electronic state is 1-A.
 Alpha  occ. eigenvalues --  -20.60723 -20.60718 -15.85776 -11.31123 -11.27698
 Alpha  occ. eigenvalues --  -11.27691 -11.27397 -11.26699 -11.26672 -11.22512
 Alpha  occ. eigenvalues --  -11.22186 -11.22048 -11.21999 -11.21877 -11.21386
 Alpha  occ. eigenvalues --   -1.59799  -1.39353  -1.19298  -1.09066  -1.08694
 Alpha  occ. eigenvalues --   -1.04707  -1.04200  -0.96677  -0.95528  -0.87706
 Alpha  occ. eigenvalues --   -0.86094  -0.82368  -0.80284  -0.78829  -0.77420
 Alpha  occ. eigenvalues --   -0.71997  -0.71123  -0.70431  -0.65691  -0.64965
 Alpha  occ. eigenvalues --   -0.64766  -0.62118  -0.61564  -0.60036  -0.58246
 Alpha  occ. eigenvalues --   -0.55927  -0.55237  -0.53446  -0.53121  -0.52954
 Alpha  occ. eigenvalues --   -0.52714  -0.50570  -0.48755  -0.48751  -0.48586
 Alpha  occ. eigenvalues --   -0.47289  -0.46381  -0.46272  -0.44763  -0.44451
 Alpha  occ. eigenvalues --   -0.37238  -0.36300
 Alpha virt. eigenvalues --    0.05113   0.11300   0.16583   0.20174   0.22504
 Alpha virt. eigenvalues --    0.23882   0.25865   0.26264   0.26634   0.27593
 Alpha virt. eigenvalues --    0.28564   0.29999   0.30765   0.31413   0.31910

 Mulliken charges:
               1
     1  C   -0.170042
     2  C   -0.219581
     3  C   -0.171067
     4  C    0.158085
     5  C   -0.172190
     6  C   -0.218812
     7  H    0.227800
     8  H    0.223231
     9  H    0.275310
    10  H    0.275131
    11  H    0.225447
    12  N    0.488107
    13  O   -0.460748
    14  O   -0.460629
    15  C   -0.298962
    16  C   -0.300241
    17  C   -0.476114
    18  H    0.150105
    19  H    0.150608
    20  H    0.152298
    21  H    0.153227
    22  H    0.156150
    23  H    0.155404
    24  H    0.161693
    25  C   -0.299338
    26  C   -0.301027
    27  C   -0.477906
    28  H    0.150884
    29  H    0.152199
    30  H    0.153564
    31  H    0.150585
    32  H    0.162713
    33  H    0.158104
    34  H    0.146013
 Sum of Mulliken charges =  -0.00000

 Dipole moment (field-independent basis, Debye):
    X=              3.3254    Y=              4.1308    Z=              0.4186  Tot=              5.3195
 Quadrupole moment (field-independent basis, Debye-Ang):
   XX=           -115.8347   YY=            -95.9796   ZZ=            -93.3691
   XY=            -16.8050   XZ=              0.1836   YZ=             -1.5783

 Normal termination of Gaussian 16 at Thu May  6 09:22:41 2021.
