 Gaussian 16, Revision A.03,
 Gaussian 16:  EM64L-G16RevA.03 25-Dec-2016

 -------------
 #p 6-31g* mp2
 -------------

 ------------------------------------------------------
 Input file generated by CHIRIPA (05-May-2021 14:57:26)
 ------------------------------------------------------
 Symbolic Z-matrix:
 Charge =  0 Multiplicity = 1

                         Standard orientation:
 ---------------------------------------------------------------------
 Center     Atomic      Atomic             Coordinates (Angstroms)
 Number     Number       Type             X           Y           Z
 ---------------------------------------------------------------------
      1          6           0       -1.039316   -1.634474    0.642001
      2          6           0       -1.891405   -2.039208   -0.390790
      3          6           0       -3.014478   -1.276483   -0.724714
      4          6           0       -3.256455   -0.109342   -0.001860
      5          6           0       -2.426321    0.320312    1.032338
      6          6           0       -1.309018   -0.458080    1.349022
      7          1           0       -0.169127   -2.233062    0.894705
      8          1           0       -1.684423   -2.952355   -0.941576
      9          1           0       -3.690745   -1.566513   -1.519676
     10          1           0       -2.658704    1.235386    1.563426
     11          1           0       -0.649016   -0.141316    2.151582
     12          7           0       -4.442348    0.706413   -0.346245
     13          8           0       -4.633534    1.730610    0.305757
     14          8           0       -5.158210    0.306159   -1.261654
     15          6           0        3.241113   -2.272187    0.002993
     16          6           0        2.616295   -1.590786    1.052667
     17          6           0        2.510803   -0.196887    1.031150
     18          6           0        3.043594    0.487024   -0.060496
     19          6           0        3.671896   -0.163299   -1.121442
     20          6           0        3.765994   -1.557529   -1.078804
     21          1           0        3.318636   -3.355130    0.027911
     22          1           0        2.207755   -2.143198    1.894084
     23          1           0        2.032190    0.355844    1.830423
     24          1           0        4.069560    0.414779   -1.946734
     25          1           0        4.251771   -2.084072   -1.895394
     26          7           0        2.937945    1.962858   -0.094455
     27          8           0        3.415430    2.542245   -1.067571
     28          8           0        2.379655    2.512284    0.852689
 ---------------------------------------------------------------------

 SCF Done:  E(RHF) =  -868.335492213     A.U. after   16 cycles
 E2 =    -0.2602281330D+01 EUMP2 =    -0.87093777354297D+03

 The electronic state is 1-A.
 Alpha  occ. eigenvalues --  -20.61450 -20.61433 -20.60740 -20.60727 -15.86509
 Alpha  occ. eigenvalues --  -15.85796 -11.32088 -11.31241 -11.28795 -11.28638
 Alpha  occ. eigenvalues --  -11.28499 -11.27862 -11.27854 -11.27834 -11.27675
 Alpha  occ. eigenvalues --  -11.27638 -11.26929 -11.26897  -1.60512  -1.59810
 Alpha  occ. eigenvalues --   -1.40063  -1.39361  -1.20303  -1.19451  -1.09655
 Alpha  occ. eigenvalues --   -1.08846  -1.05763  -1.04873  -0.96448  -0.95658
 Alpha  occ. eigenvalues --   -0.87148  -0.86288  -0.83298  -0.82487  -0.78310
 Alpha  occ. eigenvalues --   -0.77504  -0.72725  -0.72015  -0.71835  -0.71412
 Alpha  occ. eigenvalues --   -0.71133  -0.70630  -0.65965  -0.65779  -0.65116
 Alpha  occ. eigenvalues --   -0.64947  -0.63098  -0.62205  -0.56236  -0.55568
 Alpha  occ. eigenvalues --   -0.54019  -0.53799  -0.53140  -0.52973  -0.49497
 Alpha  occ. eigenvalues --   -0.49466  -0.48783  -0.48759  -0.45421  -0.44748
 Alpha  occ. eigenvalues --   -0.38282  -0.37818  -0.36985  -0.36427
 Alpha virt. eigenvalues --    0.04227   0.05062   0.10030   0.11258   0.15603
 Alpha virt. eigenvalues --    0.16492   0.18727   0.22189   0.24882   0.25797
 Alpha virt. eigenvalues --    0.28183   0.29118   0.30361   0.30875   0.32633

 Mulliken charges:
               1
     1  C   -0.165433
     2  C   -0.220475
     3  C   -0.169855
     4  C    0.158147
     5  C   -0.168232
     6  C   -0.220361
     7  H    0.218970
     8  H    0.220996
     9  H    0.275789
    10  H    0.279312
    11  H    0.217410
    12  N    0.488129
    13  O   -0.458240
    14  O   -0.460816
    15  C   -0.172338
    16  C   -0.227758
    17  C   -0.167408
    18  C    0.160862
    19  C   -0.168270
    20  C   -0.217785
    21  H    0.226908
    22  H    0.219236
    23  H    0.272715
    24  H    0.279529
    25  H    0.226944
    26  N    0.488400
    27  O   -0.456204
    28  O   -0.460171
 Sum of Mulliken charges =  -0.00000

 Dipole moment (field-independent basis, Debye):
    X=              4.7059    Y=             -7.8555    Z=              1.1251  Tot=              9.2260
 Quadrupole moment (field-independent basis, Debye-Ang):
   XX=           -128.6585   YY=           -108.2587   ZZ=            -99.0246
   XY=             -5.9440   XZ=             -5.5915   YZ=              3.1253

 Normal termination of Gaussian 16 at Thu May  6 02:02:08 2021.
