 Gaussian 16, Revision A.03,
 Gaussian 16:  EM64L-G16RevA.03 25-Dec-2016

 -------------
 #p 6-31g* mp2
 -------------

 ------------------------------------------------------
 Input file generated by CHIRIPA (05-May-2021 14:55:24)
 ------------------------------------------------------
 Symbolic Z-matrix:
 Charge =  0 Multiplicity = 1

                         Standard orientation:
 ---------------------------------------------------------------------
 Center     Atomic      Atomic             Coordinates (Angstroms)
 Number     Number       Type             X           Y           Z
 ---------------------------------------------------------------------
      1          6           0        2.759053    2.198342   -0.221012
      2          6           0        4.137065    1.983225   -0.327454
      3          6           0        4.663854    0.692017   -0.228335
      4          6           0        3.779741   -0.365792   -0.021753
      5          6           0        2.402069   -0.183698    0.088476
      6          6           0        1.897472    1.116102   -0.013751
      7          1           0        2.358451    3.204720   -0.299217
      8          1           0        4.808556    2.821814   -0.488423
      9          1           0        5.726494    0.497039   -0.307053
     10          1           0        1.757737   -1.039579    0.248857
     11          1           0        0.826854    1.280184    0.069300
     12          7           0        4.325682   -1.737283    0.084826
     13          8           0        3.525634   -2.652385    0.266894
     14          8           0        5.543302   -1.871187   -0.015724
     15          6           0       -5.351207   -0.074704   -0.302311
     16          6           0       -5.847021   -1.418122    0.233770
     17          6           0       -7.104694   -1.912280   -0.481675
     18          1           0       -6.150701    0.671683   -0.199065
     19          1           0       -5.148910   -0.169261   -1.378196
     20          1           0       -6.047005   -1.321431    1.308606
     21          1           0       -5.046187   -2.161352    0.129412
     22          1           0       -6.914824   -2.036897   -1.552665
     23          1           0       -7.921328   -1.192205   -0.366771
     24          1           0       -7.441810   -2.874076   -0.082724
     25          6           0       -4.094589    0.432472    0.402965
     26          6           0       -3.598774    1.775890   -0.133115
     27          6           0       -2.341101    2.270048    0.582329
     28          1           0       -4.296885    0.527029    1.478851
     29          1           0       -3.295095   -0.313915    0.299719
     30          1           0       -4.399607    2.519119   -0.028757
     31          1           0       -3.398790    1.679200   -1.207951
     32          1           0       -1.524467    1.549973    0.467425
     33          1           0       -2.530971    2.394665    1.653320
     34          1           0       -2.003985    3.231844    0.183379
 ---------------------------------------------------------------------

 SCF Done:  E(RHF) =  -669.535543152     A.U. after   15 cycles
 E2 =    -0.2090729768D+01 EUMP2 =    -0.67162627291997D+03

 The electronic state is 1-A.
 Alpha  occ. eigenvalues --  -20.60731 -20.60726 -15.85783 -11.31140 -11.27708
 Alpha  occ. eigenvalues --  -11.27700 -11.27440 -11.26723 -11.26682 -11.22363
 Alpha  occ. eigenvalues --  -11.22164 -11.21972 -11.21917 -11.21797 -11.21312
 Alpha  occ. eigenvalues --   -1.59806  -1.39360  -1.19309  -1.08974  -1.08705
 Alpha  occ. eigenvalues --   -1.04712  -1.04109  -0.96581  -0.95542  -0.87606
 Alpha  occ. eigenvalues --   -0.86108  -0.82377  -0.80182  -0.78745  -0.77426
 Alpha  occ. eigenvalues --   -0.72002  -0.71129  -0.70417  -0.65615  -0.64960
 Alpha  occ. eigenvalues --   -0.64729  -0.62106  -0.61474  -0.59967  -0.58163
 Alpha  occ. eigenvalues --   -0.55899  -0.55201  -0.53302  -0.53075  -0.53040
 Alpha  occ. eigenvalues --   -0.52724  -0.50509  -0.48763  -0.48758  -0.48483
 Alpha  occ. eigenvalues --   -0.47197  -0.46298  -0.46192  -0.44768  -0.44346
 Alpha  occ. eigenvalues --   -0.37289  -0.36315
 Alpha virt. eigenvalues --    0.05109   0.11339   0.16606   0.19954   0.22546
 Alpha virt. eigenvalues --    0.23762   0.25269   0.26400   0.27147   0.28194
 Alpha virt. eigenvalues --    0.28769   0.29863   0.31038   0.31530   0.32229

 Mulliken charges:
               1
     1  C   -0.173500
     2  C   -0.218475
     3  C   -0.171304
     4  C    0.158836
     5  C   -0.173843
     6  C   -0.226377
     7  H    0.226306
     8  H    0.223176
     9  H    0.275386
    10  H    0.275324
    11  H    0.236135
    12  N    0.488115
    13  O   -0.460610
    14  O   -0.460648
    15  C   -0.298849
    16  C   -0.300276
    17  C   -0.476075
    18  H    0.150498
    19  H    0.150320
    20  H    0.152612
    21  H    0.153162
    22  H    0.155775
    23  H    0.155358
    24  H    0.161880
    25  C   -0.298799
    26  C   -0.299391
    27  C   -0.481447
    28  H    0.151189
    29  H    0.148806
    30  H    0.155293
    31  H    0.153091
    32  H    0.148315
    33  H    0.160700
    34  H    0.159317
 Sum of Mulliken charges =  -0.00000

 Dipole moment (field-independent basis, Debye):
    X=             -2.1443    Y=              4.8501    Z=             -0.3655  Tot=              5.3155
 Quadrupole moment (field-independent basis, Debye-Ang):
   XX=           -104.7235   YY=            -98.1220   ZZ=            -95.2349
   XY=             20.3100   XZ=             -2.9243   YZ=             -0.0808

 Normal termination of Gaussian 16 at Thu May  6 14:19:04 2021.
