 Gaussian 16, Revision A.03,
 Gaussian 16:  EM64L-G16RevA.03 25-Dec-2016

 -------------
 #p 6-31g* mp2
 -------------

 ------------------------------------------------------
 Input file generated by CHIRIPA (05-May-2021 14:57:25)
 ------------------------------------------------------
 Symbolic Z-matrix:
 Charge =  0 Multiplicity = 1

                         Standard orientation:
 ---------------------------------------------------------------------
 Center     Atomic      Atomic             Coordinates (Angstroms)
 Number     Number       Type             X           Y           Z
 ---------------------------------------------------------------------
      1          6           0        4.849827    1.969878    0.430574
      2          6           0        4.884654    0.799529    1.195813
      3          6           0        4.034963   -0.269715    0.896998
      4          6           0        3.158998   -0.133914   -0.178889
      5          6           0        3.100644    1.019189   -0.960067
      6          6           0        3.959503    2.075786   -0.643031
      7          1           0        5.513448    2.795580    0.669778
      8          1           0        5.575067    0.714478    2.030164
      9          1           0        4.041053   -1.187183    1.472875
     10          1           0        2.401601    1.074459   -1.785720
     11          1           0        3.930267    2.983498   -1.239059
     12          7           0        2.254616   -1.259181   -0.504876
     13          8           0        1.492012   -1.114624   -1.457858
     14          8           0        2.325489   -2.264415    0.198771
     15          6           0       -5.040470    1.779242    0.011710
     16          6           0       -4.512240    1.241380   -1.166509
     17          6           0       -3.551861    0.226671   -1.115633
     18          6           0       -3.140567   -0.228537    0.136131
     19          6           0       -3.647983    0.287129    1.327729
     20          6           0       -4.607419    1.301244    1.252879
     21          1           0       -5.786149    2.567262   -0.037124
     22          1           0       -4.846688    1.610655   -2.131820
     23          1           0       -3.126271   -0.207566   -2.012142
     24          1           0       -3.294937   -0.101482    2.275231
     25          1           0       -5.015904    1.717085    2.169538
     26          7           0       -2.124357   -1.302449    0.202681
     27          8           0       -1.778599   -1.686181    1.317955
     28          8           0       -1.692850   -1.740114   -0.861692
 ---------------------------------------------------------------------

 SCF Done:  E(RHF) =  -868.334480444     A.U. after   16 cycles
 E2 =    -0.2600974785D+01 EUMP2 =    -0.87093545522866D+03

 The electronic state is 1-A.
 Alpha  occ. eigenvalues --  -20.59748 -20.59623 -20.59613 -20.59611 -15.84740
 Alpha  occ. eigenvalues --  -15.84694 -11.30538 -11.30500 -11.27172 -11.27141
 Alpha  occ. eigenvalues --  -11.27135 -11.27099 -11.26990 -11.26950 -11.26280
 Alpha  occ. eigenvalues --  -11.26261 -11.26252 -11.26220  -1.58752  -1.58677
 Alpha  occ. eigenvalues --   -1.38298  -1.38224  -1.18755  -1.18714  -1.08073
 Alpha  occ. eigenvalues --   -1.08023  -1.04219  -1.04184  -0.94841  -0.94771
 Alpha  occ. eigenvalues --   -0.85596  -0.85561  -0.81676  -0.81604  -0.76640
 Alpha  occ. eigenvalues --   -0.76588  -0.71042  -0.70807  -0.70208  -0.69917
 Alpha  occ. eigenvalues --   -0.69858  -0.69822  -0.64396  -0.64352  -0.64227
 Alpha  occ. eigenvalues --   -0.64191  -0.61558  -0.61528  -0.54713  -0.54672
 Alpha  occ. eigenvalues --   -0.52535  -0.52486  -0.52315  -0.52284  -0.47889
 Alpha  occ. eigenvalues --   -0.47701  -0.47633  -0.47464  -0.43821  -0.43284
 Alpha  occ. eigenvalues --   -0.36770  -0.36713  -0.35846  -0.35809
 Alpha virt. eigenvalues --    0.05810   0.06052   0.11803   0.11839   0.17241
 Alpha virt. eigenvalues --    0.17450   0.21888   0.21917   0.27773   0.27790
 Alpha virt. eigenvalues --    0.28816   0.28858   0.31395   0.31445   0.33083

 Mulliken charges:
               1
     1  C   -0.172399
     2  C   -0.218580
     3  C   -0.170952
     4  C    0.159914
     5  C   -0.172434
     6  C   -0.218587
     7  H    0.222616
     8  H    0.221453
     9  H    0.276617
    10  H    0.273584
    11  H    0.220053
    12  N    0.487375
    13  O   -0.453824
    14  O   -0.454800
    15  C   -0.172449
    16  C   -0.219017
    17  C   -0.171754
    18  C    0.158957
    19  C   -0.172349
    20  C   -0.218747
    21  H    0.222691
    22  H    0.221182
    23  H    0.277944
    24  H    0.274500
    25  H    0.220746
    26  N    0.485251
    27  O   -0.463779
    28  O   -0.443211
 Sum of Mulliken charges =  -0.00000

 Dipole moment (field-independent basis, Debye):
    X=             -0.3700    Y=              7.4028    Z=              0.7807  Tot=              7.4531
 Quadrupole moment (field-independent basis, Debye-Ang):
   XX=            -64.7904   YY=           -107.5411   ZZ=            -97.8392
   XY=             -0.2603   XZ=              5.1387   YZ=             -2.2857

 Normal termination of Gaussian 16 at Fri May  7 03:30:57 2021.
