 Gaussian 16, Revision A.03,
 Gaussian 16:  EM64L-G16RevA.03 25-Dec-2016

 -------------
 #p 6-31g* mp2
 -------------

 ------------------------------------------------------
 Input file generated by CHIRIPA (05-May-2021 14:57:26)
 ------------------------------------------------------
 Symbolic Z-matrix:
 Charge =  0 Multiplicity = 1

                         Standard orientation:
 ---------------------------------------------------------------------
 Center     Atomic      Atomic             Coordinates (Angstroms)
 Number     Number       Type             X           Y           Z
 ---------------------------------------------------------------------
      1          6           0       -5.024474    1.754456   -0.754019
      2          6           0       -5.603618    0.499183   -0.540940
      3          6           0       -4.822759   -0.580347   -0.117357
      4          6           0       -3.459832   -0.368122    0.084340
      5          6           0       -2.853498    0.870489   -0.119357
      6          6           0       -3.653679    1.935783   -0.542920
      7          1           0       -5.638569    2.587532   -1.083061
      8          1           0       -6.667933    0.355443   -0.704085
      9          1           0       -5.245242   -1.562769    0.055190
     10          1           0       -1.789777    0.983015    0.051681
     11          1           0       -3.201197    2.909531   -0.707605
     12          7           0       -2.622944   -1.503436    0.532758
     13          8           0       -1.424533   -1.290495    0.703355
     14          8           0       -3.181248   -2.584740    0.705139
     15          6           0        2.961008    2.516524    0.700784
     16          6           0        4.245856    2.259711    0.211159
     17          6           0        4.609653    0.969512   -0.185814
     18          6           0        3.659321   -0.044781   -0.079194
     19          6           0        2.371315    0.179460    0.404591
     20          6           0        2.029480    1.477411    0.795771
     21          1           0        2.686933    3.521792    1.006913
     22          1           0        4.971348    3.064757    0.136282
     23          1           0        5.597386    0.742789   -0.568434
     24          1           0        1.669771   -0.643516    0.467551
     25          1           0        1.030922    1.673930    1.175647
     26          7           0        4.032830   -1.414759   -0.496385
     27          8           0        3.177298   -2.291074   -0.392591
     28          8           0        5.174048   -1.586294   -0.919273
 ---------------------------------------------------------------------

 SCF Done:  E(RHF) =  -868.338011072     A.U. after   16 cycles
 E2 =    -0.2599439265D+01 EUMP2 =    -0.87093745033662D+03

 The electronic state is 1-A.
 Alpha  occ. eigenvalues --  -20.61290 -20.61243 -20.60180 -20.60137 -15.86326
 Alpha  occ. eigenvalues --  -15.85217 -11.31670 -11.30665 -11.28309 -11.28184
 Alpha  occ. eigenvalues --  -11.27944 -11.27342 -11.27271 -11.27196 -11.27156
 Alpha  occ. eigenvalues --  -11.27137 -11.26381 -11.26350  -1.60321  -1.59241
 Alpha  occ. eigenvalues --   -1.39885  -1.38786  -1.19831  -1.18892  -1.09220
 Alpha  occ. eigenvalues --   -1.08294  -1.05240  -1.04299  -0.96065  -0.95090
 Alpha  occ. eigenvalues --   -0.86637  -0.85707  -0.82911  -0.81913  -0.77971
 Alpha  occ. eigenvalues --   -0.76915  -0.72550  -0.71635  -0.71431  -0.70945
 Alpha  occ. eigenvalues --   -0.70571  -0.70004  -0.65491  -0.65246  -0.64546
 Alpha  occ. eigenvalues --   -0.64327  -0.62605  -0.61603  -0.55724  -0.54860
 Alpha  occ. eigenvalues --   -0.53554  -0.53341  -0.52651  -0.52387  -0.49305
 Alpha  occ. eigenvalues --   -0.49264  -0.48217  -0.48169  -0.45291  -0.44172
 Alpha  occ. eigenvalues --   -0.37792  -0.36934  -0.36838  -0.35915
 Alpha virt. eigenvalues --    0.04586   0.05596   0.10816   0.11715   0.16089
 Alpha virt. eigenvalues --    0.16984   0.19577   0.21962   0.24959   0.27209
 Alpha virt. eigenvalues --    0.28582   0.29080   0.30527   0.31169   0.32829

 Mulliken charges:
               1
     1  C   -0.170332
     2  C   -0.218166
     3  C   -0.169813
     4  C    0.159473
     5  C   -0.171124
     6  C   -0.218282
     7  H    0.226992
     8  H    0.225497
     9  H    0.277715
    10  H    0.268619
    11  H    0.222327
    12  N    0.493142
    13  O   -0.470978
    14  O   -0.453839
    15  C   -0.171081
    16  C   -0.219663
    17  C   -0.170542
    18  C    0.157169
    19  C   -0.176166
    20  C   -0.224746
    21  H    0.221397
    22  H    0.221014
    23  H    0.274425
    24  H    0.297743
    25  H    0.219946
    26  N    0.487113
    27  O   -0.453665
    28  O   -0.464177
 Sum of Mulliken charges =  -0.00000

 Dipole moment (field-independent basis, Debye):
    X=             -4.6136    Y=              8.5555    Z=             -0.1275  Tot=              9.7210
 Quadrupole moment (field-independent basis, Debye-Ang):
   XX=            -86.4398   YY=           -106.9585   ZZ=           -106.7683
   XY=              9.1388   XZ=              9.7148   YZ=             -0.1627

 Normal termination of Gaussian 16 at Fri May  7 02:00:40 2021.
