 Gaussian 16, Revision A.03,
 Gaussian 16:  EM64L-G16RevA.03 25-Dec-2016

 -------------
 #p 6-31g* mp2
 -------------

 ------------------------------------------------------
 Input file generated by CHIRIPA (05-May-2021 14:57:24)
 ------------------------------------------------------
 Symbolic Z-matrix:
 Charge =  0 Multiplicity = 1

                         Standard orientation:
 ---------------------------------------------------------------------
 Center     Atomic      Atomic             Coordinates (Angstroms)
 Number     Number       Type             X           Y           Z
 ---------------------------------------------------------------------
      1          6           0        2.077130    2.320416    0.857545
      2          6           0        2.707896    2.194341   -0.384534
      3          6           0        3.244544    0.967754   -0.787078
      4          6           0        3.132157   -0.116934    0.081317
      5          6           0        2.509605   -0.023027    1.325062
      6          6           0        1.980169    1.213281    1.706882
      7          1           0        1.663050    3.277034    1.162201
      8          1           0        2.784657    3.052457   -1.046191
      9          1           0        3.738064    0.842176   -1.743156
     10          1           0        2.448466   -0.896349    1.963019
     11          1           0        1.490853    1.308261    2.672073
     12          7           0        3.696464   -1.420613   -0.333868
     13          8           0        3.584466   -2.361105    0.449439
     14          8           0        4.240082   -1.477260   -1.434735
     15          6           0       -5.504518   -0.558014    0.126323
     16          6           0       -4.566270   -1.531140    0.485821
     17          6           0       -3.197729   -1.287121    0.337177
     18          6           0       -2.800809   -0.053448   -0.176434
     19          6           0       -3.711285    0.936239   -0.543645
     20          6           0       -5.074788    0.670404   -0.386359
     21          1           0       -6.565678   -0.756048    0.245149
     22          1           0       -4.897116   -2.486050    0.884236
     23          1           0       -2.449907   -2.022715    0.607516
     24          1           0       -3.351046    1.878619   -0.938063
     25          1           0       -5.801194    1.428008   -0.666385
     26          7           0       -1.354662    0.216432   -0.338371
     27          8           0       -1.030672    1.311338   -0.793177
     28          8           0       -0.572545   -0.672052   -0.007424
 ---------------------------------------------------------------------

 SCF Done:  E(RHF) =  -868.337947525     A.U. after   16 cycles
 E2 =    -0.2601189987D+01 EUMP2 =    -0.87093913751196D+03

 The electronic state is 1-A.
 Alpha  occ. eigenvalues --  -20.61180 -20.61148 -20.59384 -20.59378 -15.86192
 Alpha  occ. eigenvalues --  -15.84429 -11.31506 -11.29449 -11.28083 -11.28040
 Alpha  occ. eigenvalues --  -11.27787 -11.27072 -11.27040 -11.26096 -11.26092
 Alpha  occ. eigenvalues --  -11.25854 -11.25065 -11.25047  -1.60223  -1.58458
 Alpha  occ. eigenvalues --   -1.39784  -1.38026  -1.19670  -1.17630  -1.09074
 Alpha  occ. eigenvalues --   -1.07114  -1.05061  -1.03051  -0.95920  -0.94009
 Alpha  occ. eigenvalues --   -0.86462  -0.84500  -0.82756  -0.80890  -0.77811
 Alpha  occ. eigenvalues --   -0.75953  -0.72431  -0.71553  -0.70772  -0.70684
 Alpha  occ. eigenvalues --   -0.69749  -0.68875  -0.65323  -0.65060  -0.63362
 Alpha  occ. eigenvalues --   -0.63158  -0.62407  -0.60475  -0.55566  -0.53654
 Alpha  occ. eigenvalues --   -0.53401  -0.53149  -0.51513  -0.51237  -0.49184
 Alpha  occ. eigenvalues --   -0.48901  -0.47438  -0.47404  -0.45211  -0.43513
 Alpha  occ. eigenvalues --   -0.37654  -0.36664  -0.35538  -0.34527
 Alpha virt. eigenvalues --    0.04707   0.06641   0.10991   0.13056   0.16219
 Alpha virt. eigenvalues --    0.18180   0.21158   0.22833   0.27069   0.28046
 Alpha virt. eigenvalues --    0.28683   0.29718   0.30723   0.32250   0.32297

 Mulliken charges:
               1
     1  C   -0.158318
     2  C   -0.210933
     3  C   -0.169122
     4  C    0.163406
     5  C   -0.152391
     6  C   -0.218268
     7  H    0.218173
     8  H    0.216720
     9  H    0.269681
    10  H    0.268876
    11  H    0.213463
    12  N    0.488560
    13  O   -0.465544
    14  O   -0.466187
    15  C   -0.170583
    16  C   -0.218525
    17  C   -0.171357
    18  C    0.157845
    19  C   -0.171542
    20  C   -0.218510
    21  H    0.226669
    22  H    0.225191
    23  H    0.277671
    24  H    0.273867
    25  H    0.223735
    26  N    0.488117
    27  O   -0.462860
    28  O   -0.457833
 Sum of Mulliken charges =  -0.00000

 Dipole moment (field-independent basis, Debye):
    X=             -7.4257    Y=              3.5911    Z=              1.9957  Tot=              8.4864
 Quadrupole moment (field-independent basis, Debye-Ang):
   XX=            -90.2462   YY=           -101.8614   ZZ=           -101.7573
   XY=             17.5261   XZ=              2.5672   YZ=             -3.7617

 Normal termination of Gaussian 16 at Thu May  6 08:13:32 2021.
