 Gaussian 16, Revision A.03,
 Gaussian 16:  EM64L-G16RevA.03 25-Dec-2016

 -------------
 #p 6-31g* mp2
 -------------

 ------------------------------------------------------
 Input file generated by CHIRIPA (05-May-2021 14:53:12)
 ------------------------------------------------------
 Symbolic Z-matrix:
 Charge =  0 Multiplicity = 1

                         Standard orientation:
 ---------------------------------------------------------------------
 Center     Atomic      Atomic             Coordinates (Angstroms)
 Number     Number       Type             X           Y           Z
 ---------------------------------------------------------------------
      1          6           0       -2.232160    1.024663   -0.276882
      2          6           0       -1.987388    2.305079    0.522246
      3          6           0       -0.609273    2.912403    0.258144
      4          1           0       -1.452943    0.290868   -0.029271
      5          1           0       -2.126164    1.243601   -1.348435
      6          1           0       -2.095176    2.084095    1.591902
      7          1           0       -2.767388    3.035843    0.272847
      8          1           0       -0.494513    3.160882   -0.801899
      9          1           0        0.181519    2.203727    0.524651
     10          1           0       -0.455420    3.826831    0.839532
     11          6           0       -3.605626    0.405674   -0.023565
     12          6           0       -3.850398   -0.874742   -0.822694
     13          6           0       -5.228513   -1.482066   -0.558591
     14          1           0       -3.711622    0.186737    1.047988
     15          1           0       -4.384843    1.139470   -0.271176
     16          1           0       -3.070398   -1.605506   -0.573294
     17          1           0       -3.742610   -0.653758   -1.892350
     18          1           0       -6.019305   -0.773389   -0.825099
     19          1           0       -5.343273   -1.730545    0.501451
     20          1           0       -5.382365   -2.396493   -1.139979
     21          6           0        0.563255   -1.449467    1.737229
     22          6           0        0.441369   -1.718188    0.369949
     23          6           0        1.386876   -1.229754   -0.536690
     24          6           0        2.446391   -0.472612   -0.039240
     25          6           0        2.595304   -0.187834    1.317231
     26          6           0        1.637939   -0.686492    2.205680
     27          1           0       -0.175843   -1.832865    2.434463
     28          1           0       -0.392207   -2.310443    0.003302
     29          1           0        1.316758   -1.422749   -1.600294
     30          1           0        3.437187    0.405506    1.652785
     31          1           0        1.735138   -0.476223    3.266993
     32          7           0        3.453634    0.049884   -0.989430
     33          8           0        4.377836    0.714433   -0.525901
     34          8           0        3.299836   -0.215029   -2.179727
 ---------------------------------------------------------------------

 SCF Done:  E(RHF) =  -669.534949124     A.U. after   15 cycles
 E2 =    -0.2094186960D+01 EUMP2 =    -0.67162913608367D+03

 The electronic state is 1-A.
 Alpha  occ. eigenvalues --  -20.60833 -20.60828 -15.85889 -11.31318 -11.27893
 Alpha  occ. eigenvalues --  -11.27864 -11.27631 -11.26919 -11.26885 -11.22266
 Alpha  occ. eigenvalues --  -11.21836 -11.21798 -11.21632 -11.21528 -11.21102
 Alpha  occ. eigenvalues --   -1.59907  -1.39458  -1.19502  -1.08901  -1.08792
 Alpha  occ. eigenvalues --   -1.04908  -1.03892  -0.96312  -0.95700  -0.87329
 Alpha  occ. eigenvalues --   -0.86299  -0.82530  -0.79986  -0.78618  -0.77562
 Alpha  occ. eigenvalues --   -0.72106  -0.71229  -0.70585  -0.65516  -0.65143
 Alpha  occ. eigenvalues --   -0.64863  -0.62241  -0.61308  -0.59702  -0.57930
 Alpha  occ. eigenvalues --   -0.55605  -0.55395  -0.53314  -0.53038  -0.52962
 Alpha  occ. eigenvalues --   -0.52733  -0.50274  -0.48872  -0.48856  -0.48276
 Alpha  occ. eigenvalues --   -0.47038  -0.46123  -0.46033  -0.44850  -0.44129
 Alpha  occ. eigenvalues --   -0.37443  -0.36421
 Alpha virt. eigenvalues --    0.04962   0.11051   0.16402   0.19944   0.22882
 Alpha virt. eigenvalues --    0.23689   0.25191   0.26519   0.27438   0.28262
 Alpha virt. eigenvalues --    0.28969   0.29773   0.31320   0.31475   0.31994

 Mulliken charges:
               1
     1  C   -0.308887
     2  C   -0.297924
     3  C   -0.478870
     4  H    0.157729
     5  H    0.150301
     6  H    0.147643
     7  H    0.152321
     8  H    0.158098
     9  H    0.157078
    10  H    0.159985
    11  C   -0.297582
    12  C   -0.299472
    13  C   -0.475569
    14  H    0.145679
    15  H    0.152136
    16  H    0.140693
    17  H    0.155307
    18  H    0.158410
    19  H    0.153876
    20  H    0.160740
    21  C   -0.170915
    22  C   -0.223264
    23  C   -0.169172
    24  C    0.160001
    25  C   -0.171947
    26  C   -0.217836
    27  H    0.226444
    28  H    0.228725
    29  H    0.276869
    30  H    0.276605
    31  H    0.224410
    32  N    0.488116
    33  O   -0.459907
    34  O   -0.459823
 Sum of Mulliken charges =  -0.00000

 Dipole moment (field-independent basis, Debye):
    X=             -3.4505    Y=             -1.8442    Z=              3.3146  Tot=              5.1278
 Quadrupole moment (field-independent basis, Debye-Ang):
   XX=           -112.1162   YY=            -92.8042   ZZ=            -91.7484
   XY=             -2.4478   XZ=             11.1154   YZ=             -0.1694

 Normal termination of Gaussian 16 at Thu May  6 13:38:54 2021.
