 Gaussian 16, Revision A.03,
 Gaussian 16:  EM64L-G16RevA.03 25-Dec-2016

 -------------
 #p 6-31g* mp2
 -------------

 ------------------------------------------------------
 Input file generated by CHIRIPA (05-May-2021 14:53:15)
 ------------------------------------------------------
 Symbolic Z-matrix:
 Charge =  0 Multiplicity = 1

                         Standard orientation:
 ---------------------------------------------------------------------
 Center     Atomic      Atomic             Coordinates (Angstroms)
 Number     Number       Type             X           Y           Z
 ---------------------------------------------------------------------
      1          6           0       -4.077899   -0.139213   -0.079870
      2          6           0       -5.602196   -0.228667    0.000761
      3          6           0       -6.133638   -1.613126   -0.371581
      4          1           0       -3.755264   -0.395691   -1.098237
      5          1           0       -3.637521   -0.893525    0.586821
      6          1           0       -6.039565    0.526516   -0.664838
      7          1           0       -5.921252    0.028240    1.019004
      8          1           0       -5.724817   -2.375862    0.299015
      9          1           0       -5.843802   -1.874755   -1.394394
     10          1           0       -7.225417   -1.654727   -0.307179
     11          6           0       -3.531526    1.238745    0.289500
     12          6           0       -2.007229    1.328200    0.208868
     13          6           0       -1.475786    2.712658    0.581210
     14          1           0       -3.971903    1.993057   -0.377191
     15          1           0       -3.854160    1.495224    1.307867
     16          1           0       -1.688172    1.071292   -0.809374
     17          1           0       -1.569859    0.573016    0.874467
     18          1           0       -1.765622    2.974287    1.604023
     19          1           0       -1.884608    3.475394   -0.089386
     20          1           0       -0.384007    2.754259    0.516809
     21          6           0        5.088717    0.942419   -0.153187
     22          6           0        3.902616    1.456962   -0.686975
     23          6           0        2.724079    0.705671   -0.652954
     24          6           0        2.767837   -0.562138   -0.074993
     25          6           0        3.933870   -1.102407    0.465157
     26          6           0        5.100538   -0.333375    0.420164
     27          1           0        5.999623    1.532931   -0.183876
     28          1           0        3.890478    2.447456   -1.132869
     29          1           0        1.791979    1.079644   -1.058851
     30          1           0        3.914803   -2.092994    0.903100
     31          1           0        6.020227   -0.735531    0.835482
     32          7           0        1.526455   -1.366887   -0.033170
     33          8           0        1.591319   -2.481114    0.481541
     34          8           0        0.512101   -0.868184   -0.515890
 ---------------------------------------------------------------------

 SCF Done:  E(RHF) =  -669.535532319     A.U. after   15 cycles
 E2 =    -0.2091745415D+01 EUMP2 =    -0.67162727773399D+03

 The electronic state is 1-A.
 Alpha  occ. eigenvalues --  -20.60891 -20.60874 -15.85913 -11.31262 -11.27828
 Alpha  occ. eigenvalues --  -11.27824 -11.27567 -11.26841 -11.26831 -11.20835
 Alpha  occ. eigenvalues --  -11.20546 -11.20502 -11.20411 -11.20379 -11.20358
 Alpha  occ. eigenvalues --   -1.59952  -1.39507  -1.19433  -1.08833  -1.07524
 Alpha  occ. eigenvalues --   -1.04832  -1.02712  -0.95674  -0.95220  -0.86250
 Alpha  occ. eigenvalues --   -0.86216  -0.82513  -0.78743  -0.77598  -0.77233
 Alpha  occ. eigenvalues --   -0.72133  -0.71267  -0.70540  -0.65088  -0.64835
 Alpha  occ. eigenvalues --   -0.64164  -0.62182  -0.60116  -0.58578  -0.56809
 Alpha  occ. eigenvalues --   -0.55334  -0.54525  -0.53164  -0.52925  -0.51952
 Alpha  occ. eigenvalues --   -0.51626  -0.49163  -0.48913  -0.48901  -0.47064
 Alpha  occ. eigenvalues --   -0.45771  -0.45116  -0.44785  -0.44516  -0.42957
 Alpha  occ. eigenvalues --   -0.37411  -0.36434
 Alpha virt. eigenvalues --    0.04944   0.11193   0.16438   0.20905   0.23522
 Alpha virt. eigenvalues --    0.24400   0.26820   0.27550   0.27741   0.28647
 Alpha virt. eigenvalues --    0.29174   0.30733   0.31563   0.32145   0.32632

 Mulliken charges:
               1
     1  C   -0.297422
     2  C   -0.299179
     3  C   -0.475121
     4  H    0.152335
     5  H    0.155291
     6  H    0.148863
     7  H    0.149539
     8  H    0.156484
     9  H    0.155269
    10  H    0.157004
    11  C   -0.299380
    12  C   -0.297091
    13  C   -0.476053
    14  H    0.144152
    15  H    0.145444
    16  H    0.158603
    17  H    0.163656
    18  H    0.153229
    19  H    0.150874
    20  H    0.149870
    21  C   -0.170637
    22  C   -0.218679
    23  C   -0.172484
    24  C    0.157984
    25  C   -0.170860
    26  C   -0.218498
    27  H    0.225920
    28  H    0.223988
    29  H    0.277724
    30  H    0.275711
    31  H    0.223709
    32  N    0.490831
    33  O   -0.460026
    34  O   -0.461049
 Sum of Mulliken charges =  -0.00000

 Dipole moment (field-independent basis, Debye):
    X=              4.5680    Y=              2.6256    Z=             -0.1785  Tot=              5.2718
 Quadrupole moment (field-independent basis, Debye-Ang):
   XX=            -70.9458   YY=            -96.9968   ZZ=            -93.5321
   XY=              3.3127   XZ=              0.5661   YZ=             -2.7776

 Normal termination of Gaussian 16 at Thu May  6 15:30:18 2021.
