 Gaussian 16, Revision A.03,
 Gaussian 16:  EM64L-G16RevA.03 25-Dec-2016

 -------------
 #p 6-31g* mp2
 -------------

 ------------------------------------------------------
 Input file generated by CHIRIPA (05-May-2021 14:57:23)
 ------------------------------------------------------
 Symbolic Z-matrix:
 Charge =  0 Multiplicity = 1

                         Standard orientation:
 ---------------------------------------------------------------------
 Center     Atomic      Atomic             Coordinates (Angstroms)
 Number     Number       Type             X           Y           Z
 ---------------------------------------------------------------------
      1          6           0        4.052963    1.986801    1.005825
      2          6           0        4.843263    1.139926    0.221765
      3          6           0        4.322411   -0.058359   -0.275600
      4          6           0        3.001346   -0.380048    0.031957
      5          6           0        2.188796    0.442768    0.810434
      6          6           0        2.730583    1.636137    1.297143
      7          1           0        4.465705    2.915748    1.388052
      8          1           0        5.870569    1.409696   -0.006077
      9          1           0        4.912041   -0.732463   -0.884977
     10          1           0        1.168182    0.146866    1.020689
     11          1           0        2.114498    2.291893    1.905805
     12          7           0        2.438861   -1.646016   -0.488941
     13          8           0        1.272083   -1.906644   -0.203741
     14          8           0        3.175415   -2.353684   -1.172558
     15          6           0       -3.604681   -2.016486    1.030378
     16          6           0       -2.547604   -1.934763    0.118002
     17          6           0       -2.255599   -0.727693   -0.524075
     18          6           0       -3.044684    0.382918   -0.228809
     19          6           0       -4.104558    0.333281    0.675343
     20          6           0       -4.378421   -0.884200    1.305651
     21          1           0       -3.824472   -2.958212    1.524587
     22          1           0       -1.945026   -2.812492   -0.097721
     23          1           0       -1.443141   -0.636378   -1.234701
     24          1           0       -4.687513    1.225314    0.869918
     25          1           0       -5.199979   -0.944728    2.013764
     26          7           0       -2.745154    1.666300   -0.902317
     27          8           0       -3.455304    2.630337   -0.624907
     28          8           0       -1.805906    1.683876   -1.694870
 ---------------------------------------------------------------------

 SCF Done:  E(RHF) =  -868.340681288     A.U. after   16 cycles
 E2 =    -0.2598902746D+01 EUMP2 =    -0.87093958403426D+03

 The electronic state is 1-A.
 Alpha  occ. eigenvalues --  -20.61239 -20.61165 -20.60520 -20.60514 -15.86234
 Alpha  occ. eigenvalues --  -15.85559 -11.31252 -11.30694 -11.27793 -11.27779
 Alpha  occ. eigenvalues --  -11.27472 -11.27287 -11.27071 -11.26914 -11.26743
 Alpha  occ. eigenvalues --  -11.26705 -11.26282 -11.26009  -1.60262  -1.59605
 Alpha  occ. eigenvalues --   -1.39830  -1.39161  -1.19394  -1.18837  -1.08856
 Alpha  occ. eigenvalues --   -1.08284  -1.04749  -1.04158  -0.95751  -0.95150
 Alpha  occ. eigenvalues --   -0.86168  -0.85583  -0.82610  -0.81955  -0.77690
 Alpha  occ. eigenvalues --   -0.77027  -0.72485  -0.71778  -0.71555  -0.70935
 Alpha  occ. eigenvalues --   -0.70513  -0.69927  -0.65061  -0.64757  -0.64464
 Alpha  occ. eigenvalues --   -0.64127  -0.62109  -0.61469  -0.55273  -0.54702
 Alpha  occ. eigenvalues --   -0.53087  -0.52850  -0.52558  -0.52213  -0.49234
 Alpha  occ. eigenvalues --   -0.49187  -0.48546  -0.48516  -0.45308  -0.44614
 Alpha  occ. eigenvalues --   -0.37353  -0.36849  -0.36326  -0.35754
 Alpha virt. eigenvalues --    0.04802   0.05429   0.11320   0.11848   0.16363
 Alpha virt. eigenvalues --    0.16973   0.21396   0.22151   0.27283   0.27800
 Alpha virt. eigenvalues --    0.28448   0.29015   0.30994   0.31625   0.32238

 Mulliken charges:
               1
     1  C   -0.169345
     2  C   -0.218472
     3  C   -0.170335
     4  C    0.157939
     5  C   -0.167806
     6  C   -0.216923
     7  H    0.227046
     8  H    0.223926
     9  H    0.275053
    10  H    0.273887
    11  H    0.226156
    12  N    0.491414
    13  O   -0.474151
    14  O   -0.456996
    15  C   -0.172627
    16  C   -0.218965
    17  C   -0.173925
    18  C    0.154576
    19  C   -0.173768
    20  C   -0.219236
    21  H    0.224936
    22  H    0.239051
    23  H    0.283250
    24  H    0.272297
    25  H    0.220737
    26  N    0.487366
    27  O   -0.463539
    28  O   -0.461544
 Sum of Mulliken charges =  -0.00000

 Dipole moment (field-independent basis, Debye):
    X=              1.2472    Y=             -0.1626    Z=              4.1668  Tot=              4.3525
 Quadrupole moment (field-independent basis, Debye-Ang):
   XX=            -80.6296   YY=           -111.4001   ZZ=           -104.9043
   XY=             24.1609   XZ=             -5.6206   YZ=              3.4188

 Normal termination of Gaussian 16 at Thu May  6 01:48:38 2021.
