 Gaussian 16, Revision A.03,
 Gaussian 16:  EM64L-G16RevA.03 25-Dec-2016

 -------------
 #p 6-31g* mp2
 -------------

 ------------------------------------------------------
 Input file generated by CHIRIPA (05-May-2021 14:57:25)
 ------------------------------------------------------
 Symbolic Z-matrix:
 Charge =  0 Multiplicity = 1

                         Standard orientation:
 ---------------------------------------------------------------------
 Center     Atomic      Atomic             Coordinates (Angstroms)
 Number     Number       Type             X           Y           Z
 ---------------------------------------------------------------------
      1          6           0       -4.656773    1.704942    0.178003
      2          6           0       -3.938571    1.282804    1.301616
      3          6           0       -3.156971    0.124758    1.250825
      4          6           0       -3.116228   -0.590235    0.054826
      5          6           0       -3.820425   -0.195382   -1.081610
      6          6           0       -4.595515    0.965805   -1.007933
      7          1           0       -5.261410    2.605760    0.226348
      8          1           0       -3.984268    1.854846    2.223964
      9          1           0       -2.590935   -0.224753    2.105731
     10          1           0       -3.755099   -0.786503   -1.986997
     11          1           0       -5.152229    1.291263   -1.882114
     12          7           0       -2.292229   -1.817869   -0.011058
     13          8           0       -2.273028   -2.430150   -1.076601
     14          8           0       -1.681182   -2.144563    1.004092
     15          6           0        1.439411    2.127484   -0.298486
     16          6           0        2.781221    2.518185   -0.240000
     17          6           0        3.793881    1.562965   -0.111069
     18          6           0        3.427271    0.219731   -0.043178
     19          6           0        2.099419   -0.200998   -0.098743
     20          6           0        1.103385    0.771530   -0.227795
     21          1           0        0.659211    2.876244   -0.398690
     22          1           0        3.045126    3.570521   -0.294665
     23          1           0        4.840630    1.837670   -0.063404
     24          1           0        1.867355   -1.257557   -0.041776
     25          1           0        0.062154    0.465196   -0.272965
     26          7           0        4.490528   -0.800679    0.093379
     27          8           0        4.141363   -1.977705    0.151101
     28          8           0        5.652940   -0.404129    0.140106
 ---------------------------------------------------------------------

 SCF Done:  E(RHF) =  -868.337901526     A.U. after   16 cycles
 E2 =    -0.2599958583D+01 EUMP2 =    -0.87093786010947D+03

 The electronic state is 1-A.
 Alpha  occ. eigenvalues --  -20.61680 -20.61669 -20.60290 -20.60262 -15.86722
 Alpha  occ. eigenvalues --  -15.85333 -11.32105 -11.30731 -11.28650 -11.28631
 Alpha  occ. eigenvalues --  -11.28353 -11.27628 -11.27613 -11.27374 -11.27221
 Alpha  occ. eigenvalues --  -11.27161 -11.26420 -11.26341  -1.60767  -1.59356
 Alpha  occ. eigenvalues --   -1.40308  -1.38905  -1.20267  -1.18935  -1.09654
 Alpha  occ. eigenvalues --   -1.08344  -1.05638  -1.04333  -0.96478  -0.95157
 Alpha  occ. eigenvalues --   -0.87032  -0.85746  -0.83287  -0.81981  -0.78347
 Alpha  occ. eigenvalues --   -0.77005  -0.72908  -0.72133  -0.71551  -0.71321
 Alpha  occ. eigenvalues --   -0.70681  -0.70062  -0.65889  -0.65607  -0.64590
 Alpha  occ. eigenvalues --   -0.64358  -0.62962  -0.61661  -0.56112  -0.54897
 Alpha  occ. eigenvalues --   -0.54008  -0.53701  -0.52683  -0.52423  -0.49684
 Alpha  occ. eigenvalues --   -0.49676  -0.48324  -0.48295  -0.45694  -0.44302
 Alpha  occ. eigenvalues --   -0.38251  -0.37253  -0.36962  -0.35934
 Alpha virt. eigenvalues --    0.04140   0.05522   0.10371   0.11713   0.15632
 Alpha virt. eigenvalues --    0.16979   0.20662   0.21558   0.26584   0.26877
 Alpha virt. eigenvalues --    0.27606   0.28691   0.30245   0.31001   0.31821

 Mulliken charges:
               1
     1  C   -0.171268
     2  C   -0.219329
     3  C   -0.175390
     4  C    0.150880
     5  C   -0.172353
     6  C   -0.218957
     7  H    0.228335
     8  H    0.226362
     9  H    0.278655
    10  H    0.278511
    11  H    0.226528
    12  N    0.486440
    13  O   -0.455764
    14  O   -0.459230
    15  C   -0.172651
    16  C   -0.219186
    17  C   -0.171344
    18  C    0.157699
    19  C   -0.170508
    20  C   -0.219267
    21  H    0.221275
    22  H    0.220551
    23  H    0.274258
    24  H    0.287441
    25  H    0.220184
    26  N    0.487774
    27  O   -0.456409
    28  O   -0.463239
 Sum of Mulliken charges =  -0.00000

 Dipole moment (field-independent basis, Debye):
    X=             -6.9088    Y=              7.7459    Z=             -0.2409  Tot=             10.3821
 Quadrupole moment (field-independent basis, Debye-Ang):
   XX=           -110.0736   YY=           -106.5984   ZZ=           -100.9719
   XY=              2.1204   XZ=             -0.8246   YZ=              0.6269

 Normal termination of Gaussian 16 at Thu May  6 13:02:10 2021.
