 Gaussian 16, Revision A.03,
 Gaussian 16:  EM64L-G16RevA.03 25-Dec-2016

 -------------
 #p 6-31g* mp2
 -------------

 ------------------------------------------------------
 Input file generated by CHIRIPA (05-May-2021 14:57:26)
 ------------------------------------------------------
 Symbolic Z-matrix:
 Charge =  0 Multiplicity = 1

                         Standard orientation:
 ---------------------------------------------------------------------
 Center     Atomic      Atomic             Coordinates (Angstroms)
 Number     Number       Type             X           Y           Z
 ---------------------------------------------------------------------
      1          6           0       -3.995072    2.160034    0.942676
      2          6           0       -4.567906    1.783652   -0.276635
      3          6           0       -4.224644    0.568829   -0.877406
      4          6           0       -3.300991   -0.248982   -0.228299
      5          6           0       -2.712965    0.098101    0.987040
      6          6           0       -3.071059    1.317543    1.569517
      7          1           0       -4.267487    3.105531    1.402264
      8          1           0       -5.285787    2.435945   -0.765720
      9          1           0       -4.652850    0.252815   -1.820906
     10          1           0       -2.000303   -0.573172    1.450639
     11          1           0       -2.624589    1.607264    2.516497
     12          7           0       -2.929744   -1.537505   -0.854625
     13          8           0       -2.113506   -2.240239   -0.262545
     14          8           0       -3.462028   -1.820317   -1.925759
     15          6           0        4.937602    1.484355   -1.212095
     16          6           0        5.353676    0.226852   -0.762551
     17          6           0        4.489211   -0.583798   -0.020868
     18          6           0        3.209871   -0.103344    0.254345
     19          6           0        2.765985    1.144852   -0.179548
     20          6           0        3.647359    1.938541   -0.919674
     21          1           0        5.615706    2.107499   -1.787648
     22          1           0        6.355126   -0.128458   -0.988157
     23          1           0        4.785433   -1.561449    0.339507
     24          1           0        1.761686    1.471816    0.061070
     25          1           0        3.321516    2.914700   -1.267501
     26          7           0        2.285750   -0.952566    1.038708
     27          8           0        1.163718   -0.506298    1.267897
     28          8           0        2.700953   -2.048372    1.409451
 ---------------------------------------------------------------------

 SCF Done:  E(RHF) =  -868.338224602     A.U. after   16 cycles
 E2 =    -0.2599183631D+01 EUMP2 =    -0.87093740823341D+03

 The electronic state is 1-A.
 Alpha  occ. eigenvalues --  -20.60762 -20.60734 -20.59973 -20.59908 -15.85806
 Alpha  occ. eigenvalues --  -15.84996 -11.31161 -11.30419 -11.27753 -11.27711
 Alpha  occ. eigenvalues --  -11.27478 -11.27107 -11.26873 -11.26859 -11.26763
 Alpha  occ. eigenvalues --  -11.26733 -11.26143 -11.26014  -1.59801  -1.59027
 Alpha  occ. eigenvalues --   -1.39364  -1.38569  -1.19331  -1.18636  -1.08727
 Alpha  occ. eigenvalues --   -1.08039  -1.04740  -1.04033  -0.95567  -0.94843
 Alpha  occ. eigenvalues --   -0.86139  -0.85434  -0.82409  -0.81661  -0.77453
 Alpha  occ. eigenvalues --   -0.76672  -0.72046  -0.71212  -0.71104  -0.70449
 Alpha  occ. eigenvalues --   -0.70359  -0.69741  -0.64995  -0.64749  -0.64284
 Alpha  occ. eigenvalues --   -0.64041  -0.62092  -0.61339  -0.55244  -0.54585
 Alpha  occ. eigenvalues --   -0.53061  -0.52838  -0.52397  -0.52113  -0.48789
 Alpha  occ. eigenvalues --   -0.48756  -0.48001  -0.47944  -0.44768  -0.43957
 Alpha  occ. eigenvalues --   -0.37309  -0.36677  -0.36341  -0.35646
 Alpha virt. eigenvalues --    0.05095   0.05835   0.11314   0.11994   0.16586
 Alpha virt. eigenvalues --    0.17278   0.21408   0.22120   0.27325   0.27946
 Alpha virt. eigenvalues --    0.28332   0.29097   0.30973   0.31622   0.32507

 Mulliken charges:
               1
     1  C   -0.172116
     2  C   -0.220251
     3  C   -0.172218
     4  C    0.154496
     5  C   -0.171310
     6  C   -0.222587
     7  H    0.221921
     8  H    0.219686
     9  H    0.272929
    10  H    0.295418
    11  H    0.223997
    12  N    0.486683
    13  O   -0.451316
    14  O   -0.466763
    15  C   -0.170671
    16  C   -0.218403
    17  C   -0.170103
    18  C    0.159598
    19  C   -0.170334
    20  C   -0.218309
    21  H    0.225445
    22  H    0.223835
    23  H    0.276659
    24  H    0.272877
    25  H    0.222346
    26  N    0.492285
    27  O   -0.468057
    28  O   -0.455738
 Sum of Mulliken charges =  -0.00000

 Dipole moment (field-independent basis, Debye):
    X=              2.2760    Y=              7.3075    Z=             -0.4272  Tot=              7.6656
 Quadrupole moment (field-independent basis, Debye-Ang):
   XX=            -72.6164   YY=           -106.1484   ZZ=           -105.5695
   XY=             -8.7850   XZ=            -12.7034   YZ=             -1.9246

 Normal termination of Gaussian 16 at Thu May  6 19:45:56 2021.
