 Gaussian 16, Revision A.03,
 Gaussian 16:  EM64L-G16RevA.03 25-Dec-2016

 -------------
 #p 6-31g* mp2
 -------------

 ------------------------------------------------------
 Input file generated by CHIRIPA (05-May-2021 14:55:20)
 ------------------------------------------------------
 Symbolic Z-matrix:
 Charge =  0 Multiplicity = 1

                         Standard orientation:
 ---------------------------------------------------------------------
 Center     Atomic      Atomic             Coordinates (Angstroms)
 Number     Number       Type             X           Y           Z
 ---------------------------------------------------------------------
      1          6           0        3.372812    0.592443   -1.730935
      2          6           0        3.714205    0.795959   -0.389834
      3          6           0        2.988266    0.173414    0.629970
      4          6           0        1.922101   -0.649889    0.271148
      5          6           0        1.557436   -0.872455   -1.055794
      6          6           0        2.297413   -0.239648   -2.059057
      7          1           0        3.942192    1.080036   -2.516719
      8          1           0        4.548885    1.441642   -0.132060
      9          1           0        3.230919    0.313501    1.676351
     10          1           0        0.720238   -1.521687   -1.281661
     11          1           0        2.030015   -0.399533   -3.099720
     12          7           0        1.146151   -1.314382    1.342013
     13          8           0        0.211203   -2.034999    0.999638
     14          8           0        1.487602   -1.102012    2.503454
     15          6           0       -3.196946    0.191624   -0.049810
     16          6           0       -3.022131   -1.058103   -0.913297
     17          6           0       -4.176394   -2.048996   -0.759661
     18          1           0       -3.287302   -0.107813    1.003337
     19          1           0       -4.142199    0.684097   -0.316948
     20          1           0       -2.076819   -1.547313   -0.645573
     21          1           0       -2.931989   -0.755644   -1.964491
     22          1           0       -5.124811   -1.583041   -1.046001
     23          1           0       -4.264782   -2.379208    0.280410
     24          1           0       -4.031004   -2.934896   -1.385683
     25          6           0       -2.051020    1.191731   -0.192509
     26          6           0       -2.225835    2.441458    0.670976
     27          6           0       -1.071572    3.432349    0.517341
     28          1           0       -1.105766    0.699258    0.074628
     29          1           0       -1.960664    1.491166   -1.245657
     30          1           0       -2.315977    2.138999    1.722170
     31          1           0       -3.171146    2.930667    0.403252
     32          1           0       -0.983184    3.762562   -0.522731
     33          1           0       -0.123154    2.966395    0.803682
     34          1           0       -1.216962    4.318249    1.143363
 ---------------------------------------------------------------------

 SCF Done:  E(RHF) =  -669.536287011     A.U. after   15 cycles
 E2 =    -0.2093433670D+01 EUMP2 =    -0.67162972068113D+03

 The electronic state is 1-A.
 Alpha  occ. eigenvalues --  -20.61014 -20.61009 -15.86030 -11.31302 -11.27863
 Alpha  occ. eigenvalues --  -11.27846 -11.27583 -11.26853 -11.26836 -11.21284
 Alpha  occ. eigenvalues --  -11.21018 -11.20949 -11.20911 -11.20801 -11.20475
 Alpha  occ. eigenvalues --   -1.60068  -1.39626  -1.19466  -1.08880  -1.07967
 Alpha  occ. eigenvalues --   -1.04850  -1.03085  -0.95730  -0.95556  -0.86575
 Alpha  occ. eigenvalues --   -0.86256  -0.82565  -0.79172  -0.77863  -0.77562
 Alpha  occ. eigenvalues --   -0.72260  -0.71388  -0.70571  -0.65131  -0.64859
 Alpha  occ. eigenvalues --   -0.64551  -0.62200  -0.60459  -0.58939  -0.57174
 Alpha  occ. eigenvalues --   -0.55358  -0.54839  -0.53191  -0.52944  -0.52262
 Alpha  occ. eigenvalues --   -0.51991  -0.49496  -0.49040  -0.49004  -0.47489
 Alpha  occ. eigenvalues --   -0.46176  -0.45555  -0.45301  -0.44687  -0.43341
 Alpha  occ. eigenvalues --   -0.37424  -0.36430
 Alpha virt. eigenvalues --    0.04871   0.11138   0.16351   0.21065   0.23235
 Alpha virt. eigenvalues --    0.24540   0.25893   0.27187   0.27656   0.28341
 Alpha virt. eigenvalues --    0.28681   0.30635   0.31461   0.31934   0.32435

 Mulliken charges:
               1
     1  C   -0.170046
     2  C   -0.218419
     3  C   -0.171466
     4  C    0.156334
     5  C   -0.169923
     6  C   -0.218878
     7  H    0.226166
     8  H    0.223988
     9  H    0.275794
    10  H    0.278587
    11  H    0.224327
    12  N    0.490820
    13  O   -0.462377
    14  O   -0.458301
    15  C   -0.296047
    16  C   -0.312347
    17  C   -0.474687
    18  H    0.156807
    19  H    0.146008
    20  H    0.172239
    21  H    0.142040
    22  H    0.151458
    23  H    0.160506
    24  H    0.157358
    25  C   -0.299666
    26  C   -0.300082
    27  C   -0.475031
    28  H    0.148771
    29  H    0.143741
    30  H    0.156374
    31  H    0.150803
    32  H    0.151906
    33  H    0.153673
    34  H    0.159567
 Sum of Mulliken charges =  -0.00000

 Dipole moment (field-independent basis, Debye):
    X=              2.8827    Y=              2.2200    Z=             -3.6315  Tot=              5.1406
 Quadrupole moment (field-independent basis, Debye-Ang):
   XX=            -83.4864   YY=            -98.2286   ZZ=            -94.1923
   XY=              3.6114   XZ=             -4.5129   YZ=              4.3541

 Normal termination of Gaussian 16 at Thu May  6 01:21:31 2021.
