 Gaussian 16, Revision A.03,
 Gaussian 16:  EM64L-G16RevA.03 25-Dec-2016

 -------------
 #p 6-31g* mp2
 -------------

 ------------------------------------------------------
 Input file generated by CHIRIPA (05-May-2021 14:51:12)
 ------------------------------------------------------
 Symbolic Z-matrix:
 Charge =  0 Multiplicity = 1

                         Standard orientation:
 ---------------------------------------------------------------------
 Center     Atomic      Atomic             Coordinates (Angstroms)
 Number     Number       Type             X           Y           Z
 ---------------------------------------------------------------------
      1          6           0       -3.574897   -0.294934    0.376949
      2          6           0       -2.724885    0.899683    0.810947
      3          6           0       -1.278143    0.514253    1.121068
      4          1           0       -3.558421   -1.055727    1.169330
      5          1           0       -3.119501   -0.757250   -0.509772
      6          1           0       -3.182507    1.360445    1.695761
      7          1           0       -2.743542    1.657802    0.017522
      8          1           0       -0.799391    0.074340    0.240231
      9          1           0       -1.240849   -0.224706    1.928006
     10          1           0       -0.688422    1.383214    1.429283
     11          6           0       -5.023695    0.074424    0.063442
     12          6           0       -5.873707   -1.120194   -0.370556
     13          6           0       -7.320449   -0.734764   -0.680677
     14          1           0       -5.479091    0.536739    0.950163
     15          1           0       -5.040171    0.835217   -0.728939
     16          1           0       -5.855050   -1.878313    0.422870
     17          1           0       -5.416086   -1.580956   -1.255370
     18          1           0       -7.357743    0.004195   -1.487615
     19          1           0       -7.799202   -0.294851    0.200160
     20          1           0       -7.910170   -1.603725   -0.988891
     21          6           0        3.923164    0.765986   -0.329623
     22          6           0        2.408096    0.586335   -0.431013
     23          6           0        1.669526    1.907094   -0.649875
     24          1           0        4.149867    1.455534    0.495042
     25          1           0        4.290839    1.245009   -1.247636
     26          1           0        2.043577    0.106534    0.486338
     27          1           0        2.184984   -0.103016   -1.255412
     28          1           0        2.005047    2.387437   -1.574699
     29          1           0        1.862837    2.598177    0.176948
     30          1           0        0.587850    1.755450   -0.719449
     31          6           0        4.675429   -0.545475   -0.110768
     32          6           0        6.190496   -0.365824   -0.009378
     33          6           0        6.929066   -1.686585    0.209485
     34          1           0        4.307753   -1.024498    0.807245
     35          1           0        4.448725   -1.235023   -0.935434
     36          1           0        6.413608    0.323527    0.815020
     37          1           0        6.555015    0.113977   -0.926730
     38          1           0        6.735755   -2.377667   -0.617338
     39          1           0        6.593545   -2.166926    1.134308
     40          1           0        8.010743   -1.534939    0.279058
 ---------------------------------------------------------------------

 SCF Done:  E(RHF) =  -470.732191177     A.U. after   11 cycles
 E2 =    -0.1583131735D+01 EUMP2 =    -0.47231532291244D+03

 The electronic state is 1-A.
 Alpha  occ. eigenvalues --  -11.21611 -11.21605 -11.21572 -11.21519 -11.21411
 Alpha  occ. eigenvalues --  -11.21360 -11.21351 -11.21299 -11.21073 -11.21048
 Alpha  occ. eigenvalues --  -11.21024 -11.20910  -1.08441  -1.08375  -1.03577
 Alpha  occ. eigenvalues --   -1.03437  -0.96076  -0.95839  -0.87092  -0.86857
 Alpha  occ. eigenvalues --   -0.79604  -0.79538  -0.78257  -0.78185  -0.65083
 Alpha  occ. eigenvalues --   -0.65007  -0.61047  -0.60861  -0.59537  -0.59126
 Alpha  occ. eigenvalues --   -0.57601  -0.57572  -0.55297  -0.55161  -0.52870
 Alpha  occ. eigenvalues --   -0.52481  -0.52398  -0.52239  -0.49882  -0.49838
 Alpha  occ. eigenvalues --   -0.47934  -0.47831  -0.46624  -0.46558  -0.45806
 Alpha  occ. eigenvalues --   -0.45732  -0.45713  -0.45638  -0.43837  -0.43651
 Alpha virt. eigenvalues --    0.21905   0.22985   0.23521   0.25085   0.26469
 Alpha virt. eigenvalues --    0.26539   0.27037   0.27450   0.27741   0.29173
 Alpha virt. eigenvalues --    0.30094   0.31023   0.31494   0.31910   0.32245

 Mulliken charges:
               1
     1  C   -0.298386
     2  C   -0.301764
     3  C   -0.480100
     4  H    0.149781
     5  H    0.149580
     6  H    0.152188
     7  H    0.152122
     8  H    0.158438
     9  H    0.154971
    10  H    0.163789
    11  C   -0.298276
    12  C   -0.299650
    13  C   -0.475710
    14  H    0.149567
    15  H    0.149666
    16  H    0.151946
    17  H    0.151919
    18  H    0.155197
    19  H    0.155192
    20  H    0.160261
    21  C   -0.298209
    22  C   -0.301617
    23  C   -0.479444
    24  H    0.149516
    25  H    0.149340
    26  H    0.155243
    27  H    0.150564
    28  H    0.153678
    29  H    0.153434
    30  H    0.167169
    31  C   -0.298251
    32  C   -0.299607
    33  C   -0.475670
    34  H    0.149561
    35  H    0.149445
    36  H    0.151878
    37  H    0.151842
    38  H    0.155102
    39  H    0.155155
    40  H    0.160139
 Sum of Mulliken charges =  -0.00000

 Dipole moment (field-independent basis, Debye):
    X=             -0.0320    Y=             -0.0074    Z=              0.0200  Tot=              0.0385
 Quadrupole moment (field-independent basis, Debye-Ang):
   XX=            -86.5359   YY=            -85.5985   ZZ=            -82.8961
   XY=              0.6958   XZ=             -0.6631   YZ=              0.1689

 Normal termination of Gaussian 16 at Wed May  5 23:09:06 2021.
