 Gaussian 16, Revision A.03,
 Gaussian 16:  EM64L-G16RevA.03 25-Dec-2016

 -------------
 #p 6-31g* mp2
 -------------

 ------------------------------------------------------
 Input file generated by CHIRIPA (05-May-2021 14:55:23)
 ------------------------------------------------------
 Symbolic Z-matrix:
 Charge =  0 Multiplicity = 1

                         Standard orientation:
 ---------------------------------------------------------------------
 Center     Atomic      Atomic             Coordinates (Angstroms)
 Number     Number       Type             X           Y           Z
 ---------------------------------------------------------------------
      1          6           0        0.567559   -1.004467    0.956963
      2          6           0        1.637830   -0.817018    1.837818
      3          6           0        2.870962   -0.354676    1.368594
      4          6           0        2.999319   -0.088504    0.006255
      5          6           0        1.951784   -0.265252   -0.896363
      6          6           0        0.727670   -0.728472   -0.404915
      7          1           0       -0.386865   -1.363966    1.330099
      8          1           0        1.516368   -1.030545    2.895976
      9          1           0        3.716119   -0.200726    2.028463
     10          1           0        2.103236   -0.043813   -1.945861
     11          1           0       -0.101777   -0.873121   -1.091311
     12          7           0        4.300008    0.401421   -0.502255
     13          8           0        4.387448    0.628671   -1.706974
     14          8           0        5.207418    0.548899    0.313523
     15          6           0       -3.914011    0.892511   -0.047182
     16          6           0       -2.943414    2.063626    0.109073
     17          6           0       -3.657205    3.409003    0.244181
     18          1           0       -4.546441    1.063856   -0.929009
     19          1           0       -4.587908    0.865614    0.820306
     20          1           0       -2.270650    2.087470   -0.757782
     21          1           0       -2.313092    1.889381    0.990520
     22          1           0       -4.315151    3.409864    1.119228
     23          1           0       -4.272468    3.609079   -0.639007
     24          1           0       -2.944543    4.232256    0.354760
     25          6           0       -3.215461   -0.459231   -0.183381
     26          6           0       -4.186060   -1.630346   -0.339636
     27          6           0       -3.472268   -2.975723   -0.474745
     28          1           0       -2.541566   -0.432334   -1.050869
     29          1           0       -2.583032   -0.630576    0.698445
     30          1           0       -4.816381   -1.456101   -1.221083
     31          1           0       -4.858822   -1.654190    0.527219
     32          1           0       -2.857004   -3.175799    0.408444
     33          1           0       -2.814322   -2.976584   -1.349791
     34          1           0       -4.184930   -3.798976   -0.585322
 ---------------------------------------------------------------------

 SCF Done:  E(RHF) =  -669.534965107     A.U. after   15 cycles
 E2 =    -0.2092625584D+01 EUMP2 =    -0.67162759069053D+03

 The electronic state is 1-A.
 Alpha  occ. eigenvalues --  -20.60700 -20.60695 -15.85752 -11.31097 -11.27665
 Alpha  occ. eigenvalues --  -11.27649 -11.27362 -11.26676 -11.26620 -11.22697
 Alpha  occ. eigenvalues --  -11.22630 -11.22334 -11.22263 -11.22187 -11.21621
 Alpha  occ. eigenvalues --   -1.59776  -1.39330  -1.19262  -1.09447  -1.08654
 Alpha  occ. eigenvalues --   -1.04662  -1.04426  -0.96901  -0.95500  -0.87909
 Alpha  occ. eigenvalues --   -0.86061  -0.82337  -0.80514  -0.79289  -0.77379
 Alpha  occ. eigenvalues --   -0.71970  -0.71098  -0.70386  -0.66081  -0.64910
 Alpha  occ. eigenvalues --   -0.64671  -0.62027  -0.61809  -0.60269  -0.58500
 Alpha  occ. eigenvalues --   -0.56232  -0.55168  -0.53537  -0.53337  -0.52981
 Alpha  occ. eigenvalues --   -0.52755  -0.50837  -0.48815  -0.48732  -0.48722
 Alpha  occ. eigenvalues --   -0.47545  -0.46759  -0.46681  -0.44740  -0.44714
 Alpha  occ. eigenvalues --   -0.37223  -0.36263
 Alpha virt. eigenvalues --    0.05129   0.11343   0.16570   0.19099   0.22644
 Alpha virt. eigenvalues --    0.23254   0.23790   0.25649   0.27126   0.28332
 Alpha virt. eigenvalues --    0.29441   0.30230   0.30957   0.31443   0.31731

 Mulliken charges:
               1
     1  C   -0.174708
     2  C   -0.219178
     3  C   -0.171094
     4  C    0.158681
     5  C   -0.172174
     6  C   -0.220896
     7  H    0.229457
     8  H    0.222879
     9  H    0.275107
    10  H    0.275165
    11  H    0.228205
    12  N    0.488033
    13  O   -0.460746
    14  O   -0.460743
    15  C   -0.298169
    16  C   -0.300351
    17  C   -0.476495
    18  H    0.153128
    19  H    0.152018
    20  H    0.152293
    21  H    0.151922
    22  H    0.155893
    23  H    0.156613
    24  H    0.163713
    25  C   -0.304357
    26  C   -0.299846
    27  C   -0.477514
    28  H    0.146332
    29  H    0.143878
    30  H    0.156582
    31  H    0.155338
    32  H    0.150287
    33  H    0.154056
    34  H    0.166693
 Sum of Mulliken charges =  -0.00000

 Dipole moment (field-independent basis, Debye):
    X=             -4.8549    Y=             -1.6603    Z=              1.7640  Tot=              5.4257
 Quadrupole moment (field-independent basis, Debye-Ang):
   XX=           -121.4216   YY=            -95.9449   ZZ=            -89.5252
   XY=             -4.4905   XZ=              7.5218   YZ=             -0.5429

 Normal termination of Gaussian 16 at Thu May  6 12:36:08 2021.
