 Gaussian 16, Revision A.03,
 Gaussian 16:  EM64L-G16RevA.03 25-Dec-2016

 -------------
 #p 6-31g* mp2
 -------------

 ------------------------------------------------------
 Input file generated by CHIRIPA (05-May-2021 14:57:20)
 ------------------------------------------------------
 Symbolic Z-matrix:
 Charge =  0 Multiplicity = 1

                         Standard orientation:
 ---------------------------------------------------------------------
 Center     Atomic      Atomic             Coordinates (Angstroms)
 Number     Number       Type             X           Y           Z
 ---------------------------------------------------------------------
      1          6           0       -1.362878   -0.411136    1.331710
      2          6           0       -1.996210    0.831505    1.225627
      3          6           0       -3.213230    0.952621    0.548322
      4          6           0       -3.771200   -0.194715   -0.013443
      5          6           0       -3.164611   -1.446703    0.075249
      6          6           0       -1.948068   -1.544277    0.757196
      7          1           0       -0.417653   -0.496078    1.859660
      8          1           0       -1.544063    1.713215    1.670819
      9          1           0       -3.725078    1.902356    0.451195
     10          1           0       -3.639766   -2.307741   -0.378907
     11          1           0       -1.458473   -2.510615    0.838009
     12          7           0       -5.059352   -0.078956   -0.732932
     13          8           0       -5.530297   -1.104867   -1.219095
     14          8           0       -5.573669    1.035494   -0.797081
     15          6           0        4.965703   -1.857064   -0.418778
     16          6           0        4.024715   -1.799953    0.614566
     17          6           0        3.239768   -0.657649    0.797727
     18          6           0        3.422892    0.413996   -0.074817
     19          6           0        4.352053    0.387456   -1.113684
     20          6           0        5.126085   -0.765102   -1.278091
     21          1           0        5.571230   -2.748416   -0.553777
     22          1           0        3.898002   -2.646477    1.283436
     23          1           0        2.503902   -0.586646    1.589483
     24          1           0        4.455629    1.247201   -1.764474
     25          1           0        5.856095   -0.806648   -2.081462
     26          7           0        2.597681    1.628730    0.109161
     27          8           0        2.778210    2.559437   -0.673036
     28          8           0        1.785977    1.627130    1.032075
 ---------------------------------------------------------------------

 SCF Done:  E(RHF) =  -868.339076985     A.U. after   16 cycles
 E2 =    -0.2599468915D+01 EUMP2 =    -0.87093854589992D+03

 The electronic state is 1-A.
 Alpha  occ. eigenvalues --  -20.61788 -20.61730 -20.60284 -20.60270 -15.86796
 Alpha  occ. eigenvalues --  -15.85327 -11.32027 -11.30578 -11.28659 -11.28515
 Alpha  occ. eigenvalues --  -11.28248 -11.27581 -11.27498 -11.27183 -11.27044
 Alpha  occ. eigenvalues --  -11.26804 -11.26213 -11.25932  -1.60811  -1.59357
 Alpha  occ. eigenvalues --   -1.40378  -1.38914  -1.20173  -1.18724  -1.09583
 Alpha  occ. eigenvalues --   -1.08132  -1.05564  -1.04101  -0.96451  -0.94993
 Alpha  occ. eigenvalues --   -0.86965  -0.85494  -0.83297  -0.81827  -0.78374
 Alpha  occ. eigenvalues --   -0.76895  -0.73039  -0.72114  -0.71548  -0.71282
 Alpha  occ. eigenvalues --   -0.70678  -0.69818  -0.65832  -0.65562  -0.64367
 Alpha  occ. eigenvalues --   -0.64075  -0.62929  -0.61441  -0.56045  -0.54606
 Alpha  occ. eigenvalues --   -0.53883  -0.53646  -0.52448  -0.52174  -0.49795
 Alpha  occ. eigenvalues --   -0.49746  -0.48310  -0.48293  -0.45806  -0.44345
 Alpha  occ. eigenvalues --   -0.38120  -0.37158  -0.36683  -0.35699
 Alpha virt. eigenvalues --    0.04147   0.05625   0.10482   0.11954   0.15691
 Alpha virt. eigenvalues --    0.17143   0.19604   0.22020   0.25307   0.27011
 Alpha virt. eigenvalues --    0.28044   0.28921   0.30635   0.31051   0.33092

 Mulliken charges:
               1
     1  C   -0.170539
     2  C   -0.216446
     3  C   -0.172531
     4  C    0.158086
     5  C   -0.172292
     6  C   -0.220053
     7  H    0.226087
     8  H    0.237151
     9  H    0.275462
    10  H    0.272351
    11  H    0.216353
    12  N    0.488121
    13  O   -0.463220
    14  O   -0.460608
    15  C   -0.169866
    16  C   -0.218701
    17  C   -0.171980
    18  C    0.159710
    19  C   -0.169601
    20  C   -0.217963
    21  H    0.228429
    22  H    0.223792
    23  H    0.268610
    24  H    0.278088
    25  H    0.226737
    26  N    0.490793
    27  O   -0.453702
    28  O   -0.472269
 Sum of Mulliken charges =  -0.00000

 Dipole moment (field-independent basis, Debye):
    X=              7.8628    Y=             -4.4726    Z=              1.7869  Tot=              9.2207
 Quadrupole moment (field-independent basis, Debye-Ang):
   XX=           -118.9244   YY=           -102.8939   ZZ=           -102.6069
   XY=            -12.5494   XZ=            -14.9451   YZ=             -1.1758

 Normal termination of Gaussian 16 at Wed May  5 17:43:15 2021.
