 Gaussian 16, Revision A.03,
 Gaussian 16:  EM64L-G16RevA.03 25-Dec-2016

 -------------
 #p 6-31g* mp2
 -------------

 ------------------------------------------------------
 Input file generated by CHIRIPA (05-May-2021 14:51:10)
 ------------------------------------------------------
 Symbolic Z-matrix:
 Charge =  0 Multiplicity = 1

                         Standard orientation:
 ---------------------------------------------------------------------
 Center     Atomic      Atomic             Coordinates (Angstroms)
 Number     Number       Type             X           Y           Z
 ---------------------------------------------------------------------
      1          6           0       -2.995475   -0.507778   -0.431056
      2          6           0       -2.020802   -1.303841   -1.299548
      3          6           0       -2.600416   -2.639386   -1.766628
      4          1           0       -3.276693   -1.112466    0.441992
      5          1           0       -3.919442   -0.329224   -0.998330
      6          1           0       -1.098414   -1.479647   -0.731297
      7          1           0       -1.741723   -0.697113   -2.170531
      8          1           0       -3.509180   -2.479915   -2.355964
      9          1           0       -2.862216   -3.266895   -0.908552
     10          1           0       -1.887038   -3.192000   -2.385958
     11          6           0       -2.430420    0.829798    0.043635
     12          6           0       -3.405093    1.625862    0.912127
     13          6           0       -2.825479    2.961406    1.379207
     14          1           0       -1.506453    0.651244    0.610909
     15          1           0       -2.149202    1.434487   -0.829413
     16          1           0       -3.684172    1.019133    1.783110
     17          1           0       -4.327481    1.801667    0.343876
     18          1           0       -2.563679    3.588915    0.521132
     19          1           0       -1.916715    2.801935    1.968543
     20          1           0       -3.538857    3.514020    1.998537
     21          6           0        2.664242    0.273149   -0.432841
     22          6           0        3.662872    1.430953   -0.447407
     23          6           0        3.553184    2.290412   -1.707205
     24          1           0        2.825681   -0.353135   -1.320902
     25          1           0        1.645257    0.675938   -0.515463
     26          1           0        4.679591    1.026182   -0.363389
     27          1           0        3.499163    2.054445    0.440891
     28          1           0        2.550530    2.721540   -1.793333
     29          1           0        3.737666    1.687435   -2.602183
     30          1           0        4.276055    3.112123   -1.696805
     31          6           0        2.761653   -0.595169    0.820262
     32          6           0        1.763023   -1.752973    0.834828
     33          6           0        1.872712   -2.612433    2.094626
     34          1           0        3.780638   -0.997958    0.902883
     35          1           0        2.600214    0.031115    1.708322
     36          1           0        1.926733   -2.376465   -0.053470
     37          1           0        0.746304   -1.348203    0.750809
     38          1           0        1.688229   -2.009455    2.989603
     39          1           0        2.875365   -3.043560    2.180754
     40          1           0        1.149839   -3.434144    2.084225
 ---------------------------------------------------------------------

 SCF Done:  E(RHF) =  -470.733304415     A.U. after   11 cycles
 E2 =    -0.1583349631D+01 EUMP2 =    -0.47231665404592D+03

 The electronic state is 1-A.
 Alpha  occ. eigenvalues --  -11.21643 -11.21642 -11.21595 -11.21536 -11.21446
 Alpha  occ. eigenvalues --  -11.21417 -11.21367 -11.21347 -11.21118 -11.21114
 Alpha  occ. eigenvalues --  -11.21060 -11.21045  -1.08468  -1.08428  -1.03563
 Alpha  occ. eigenvalues --   -1.03523  -0.95997  -0.95988  -0.87020  -0.86998
 Alpha  occ. eigenvalues --   -0.79689  -0.79539  -0.78374  -0.78146  -0.65198
 Alpha  occ. eigenvalues --   -0.64971  -0.61030  -0.60863  -0.59408  -0.59313
 Alpha  occ. eigenvalues --   -0.57628  -0.57577  -0.55291  -0.55270  -0.52705
 Alpha  occ. eigenvalues --   -0.52669  -0.52435  -0.52400  -0.49978  -0.49905
 Alpha  occ. eigenvalues --   -0.48112  -0.47813  -0.46840  -0.46520  -0.46145
 Alpha  occ. eigenvalues --   -0.45766  -0.45755  -0.45190  -0.43805  -0.43786
 Alpha virt. eigenvalues --    0.20335   0.23335   0.23856   0.24561   0.24897
 Alpha virt. eigenvalues --    0.26794   0.26930   0.27805   0.28010   0.30133
 Alpha virt. eigenvalues --    0.30660   0.31498   0.31678   0.31913   0.31982

 Mulliken charges:
               1
     1  C   -0.297725
     2  C   -0.308595
     3  C   -0.475092
     4  H    0.149359
     5  H    0.149656
     6  H    0.161330
     7  H    0.151784
     8  H    0.154937
     9  H    0.154810
    10  H    0.160210
    11  C   -0.300997
    12  C   -0.299626
    13  C   -0.475721
    14  H    0.150199
    15  H    0.149847
    16  H    0.152121
    17  H    0.152379
    18  H    0.155208
    19  H    0.154782
    20  H    0.160523
    21  C   -0.300018
    22  C   -0.299584
    23  C   -0.475724
    24  H    0.149667
    25  H    0.151564
    26  H    0.151848
    27  H    0.151923
    28  H    0.155431
    29  H    0.155106
    30  H    0.160194
    31  C   -0.297475
    32  C   -0.308124
    33  C   -0.475237
    34  H    0.149696
    35  H    0.149228
    36  H    0.152352
    37  H    0.159024
    38  H    0.154941
    39  H    0.155593
    40  H    0.160204
 Sum of Mulliken charges =  -0.00000

 Dipole moment (field-independent basis, Debye):
    X=              0.0100    Y=             -0.0021    Z=             -0.0019  Tot=              0.0104
 Quadrupole moment (field-independent basis, Debye-Ang):
   XX=            -84.2646   YY=            -85.7170   ZZ=            -84.7793
   XY=             -0.9511   XZ=             -0.1196   YZ=              0.0838

 Normal termination of Gaussian 16 at Thu May  6 00:36:00 2021.
