 Gaussian 16, Revision A.03,
 Gaussian 16:  EM64L-G16RevA.03 25-Dec-2016

 -------------
 #p 6-31g* mp2
 -------------

 ------------------------------------------------------
 Input file generated by CHIRIPA (05-May-2021 14:51:13)
 ------------------------------------------------------
 Symbolic Z-matrix:
 Charge =  0 Multiplicity = 1

                         Standard orientation:
 ---------------------------------------------------------------------
 Center     Atomic      Atomic             Coordinates (Angstroms)
 Number     Number       Type             X           Y           Z
 ---------------------------------------------------------------------
      1          6           0       -3.103202    0.989809   -0.044238
      2          6           0       -2.088215    2.118463   -0.228425
      3          6           0       -2.529210    3.424017    0.434030
      4          1           0       -4.070880    1.304261   -0.458562
      5          1           0       -3.262927    0.821384    1.029780
      6          1           0       -1.929413    2.283775   -1.301771
      7          1           0       -1.122791    1.801215    0.186214
      8          1           0       -2.669097    3.281716    1.510498
      9          1           0       -3.480302    3.767017    0.014059
     10          1           0       -1.789026    4.217273    0.290040
     11          6           0       -2.676481   -0.321829   -0.700929
     12          6           0       -3.691469   -1.450484   -0.516742
     13          6           0       -3.250474   -2.756037   -1.179198
     14          1           0       -2.516756   -0.153404   -1.774948
     15          1           0       -1.708804   -0.636281   -0.286605
     16          1           0       -4.656893   -1.133235   -0.931381
     17          1           0       -3.850271   -1.615795    0.556603
     18          1           0       -2.299382   -3.099038   -0.759227
     19          1           0       -3.110586   -2.613736   -2.255666
     20          1           0       -3.990657   -3.549293   -1.035208
     21          6           0        3.472275    0.128927    0.199633
     22          6           0        4.114339   -0.183532   -1.152442
     23          6           0        5.278038    0.751050   -1.484338
     24          1           0        3.120095    1.169559    0.199400
     25          1           0        4.236612    0.057794    0.985842
     26          1           0        3.348714   -0.113184   -1.935696
     27          1           0        4.464858   -1.223599   -1.149057
     28          1           0        6.062085    0.675053   -0.724012
     29          1           0        4.939599    1.791777   -1.515120
     30          1           0        5.722310    0.509924   -2.455080
     31          6           0        2.307408   -0.796907    0.545534
     32          6           0        1.665346   -0.484448    1.897610
     33          6           0        0.501646   -1.419029    2.229505
     34          1           0        1.543071   -0.725774   -0.240674
     35          1           0        2.659588   -1.837539    0.545768
     36          1           0        1.314826    0.555619    1.894225
     37          1           0        2.430969   -0.554796    2.680863
     38          1           0        0.840084   -2.459757    2.260288
     39          1           0       -0.282401   -1.343032    1.469180
     40          1           0        0.057373   -1.177904    3.200247
 ---------------------------------------------------------------------

 SCF Done:  E(RHF) =  -470.733403395     A.U. after   11 cycles
 E2 =    -0.1583283172D+01 EUMP2 =    -0.47231668656654D+03

 The electronic state is 1-A.
 Alpha  occ. eigenvalues --  -11.21661 -11.21652 -11.21614 -11.21605 -11.21437
 Alpha  occ. eigenvalues --  -11.21430 -11.21378 -11.21369 -11.21134 -11.21106
 Alpha  occ. eigenvalues --  -11.21073 -11.21069  -1.08478  -1.08445  -1.03566
 Alpha  occ. eigenvalues --   -1.03553  -0.96026  -0.95991  -0.87044  -0.87006
 Alpha  occ. eigenvalues --   -0.79652  -0.79593  -0.78316  -0.78236  -0.65250
 Alpha  occ. eigenvalues --   -0.64960  -0.60980  -0.60935  -0.59391  -0.59361
 Alpha  occ. eigenvalues --   -0.57648  -0.57592  -0.55422  -0.55180  -0.52707
 Alpha  occ. eigenvalues --   -0.52695  -0.52474  -0.52399  -0.50073  -0.49844
 Alpha  occ. eigenvalues --   -0.47992  -0.47916  -0.46799  -0.46551  -0.45993
 Alpha  occ. eigenvalues --   -0.45779  -0.45756  -0.45452  -0.43816  -0.43811
 Alpha virt. eigenvalues --    0.19283   0.22910   0.23927   0.24295   0.25872
 Alpha virt. eigenvalues --    0.26761   0.27090   0.27935   0.28021   0.29387
 Alpha virt. eigenvalues --    0.30510   0.31645   0.31717   0.31886   0.32337

 Mulliken charges:
               1
     1  C   -0.297988
     2  C   -0.301129
     3  C   -0.475715
     4  H    0.149988
     5  H    0.150130
     6  H    0.151939
     7  H    0.152242
     8  H    0.155476
     9  H    0.155421
    10  H    0.160175
    11  C   -0.306602
    12  C   -0.299547
    13  C   -0.476201
    14  H    0.149778
    15  H    0.156272
    16  H    0.152116
    17  H    0.152515
    18  H    0.155722
    19  H    0.155078
    20  H    0.160430
    21  C   -0.298297
    22  C   -0.299758
    23  C   -0.475745
    24  H    0.149794
    25  H    0.149579
    26  H    0.152314
    27  H    0.151939
    28  H    0.155141
    29  H    0.155253
    30  H    0.160309
    31  C   -0.299794
    32  C   -0.300267
    33  C   -0.483035
    34  H    0.150629
    35  H    0.149832
    36  H    0.152406
    37  H    0.152443
    38  H    0.155744
    39  H    0.160951
    40  H    0.160463
 Sum of Mulliken charges =  -0.00000

 Dipole moment (field-independent basis, Debye):
    X=             -0.0048    Y=             -0.0045    Z=             -0.0002  Tot=              0.0065
 Quadrupole moment (field-independent basis, Debye-Ang):
   XX=            -84.8201   YY=            -85.6472   ZZ=            -84.1526
   XY=             -0.9013   XZ=              1.1053   YZ=             -0.7536

 Normal termination of Gaussian 16 at Wed May  5 18:23:22 2021.
