 Gaussian 16, Revision A.03,
 Gaussian 16:  EM64L-G16RevA.03 25-Dec-2016

 -------------
 #p 6-31g* mp2
 -------------

 ------------------------------------------------------
 Input file generated by CHIRIPA (05-May-2021 14:51:11)
 ------------------------------------------------------
 Symbolic Z-matrix:
 Charge =  0 Multiplicity = 1

                         Standard orientation:
 ---------------------------------------------------------------------
 Center     Atomic      Atomic             Coordinates (Angstroms)
 Number     Number       Type             X           Y           Z
 ---------------------------------------------------------------------
      1          6           0        2.702238   -0.447402   -0.139093
      2          6           0        3.221894   -1.523132   -1.093424
      3          6           0        2.629083   -2.903251   -0.807696
      4          1           0        2.933102   -0.740426    0.894243
      5          1           0        1.606966   -0.399511   -0.213124
      6          1           0        4.315972   -1.568025   -1.018629
      7          1           0        2.989935   -1.227420   -2.124620
      8          1           0        1.538545   -2.881074   -0.901686
      9          1           0        2.872115   -3.223614    0.210589
     10          1           0        3.014139   -3.657056   -1.501505
     11          6           0        3.285740    0.937776   -0.412102
     12          6           0        2.766083    2.013506    0.542229
     13          6           0        3.358894    3.393625    0.256501
     14          1           0        4.381012    0.889885   -0.338072
     15          1           0        3.054875    1.230800   -1.445439
     16          1           0        2.998042    1.717794    1.573425
     17          1           0        1.672006    2.058399    0.467434
     18          1           0        3.115862    3.713988   -0.761784
     19          1           0        4.449433    3.371448    0.350491
     20          1           0        2.973838    4.147430    0.950310
     21          6           0       -2.439522   -0.277365    0.799967
     22          6           0       -1.591841   -1.546675    0.709007
     23          6           0       -0.486799   -1.596457    1.764563
     24          1           0       -1.787294    0.600032    0.691723
     25          1           0       -2.885410   -0.213632    1.802223
     26          1           0       -1.148800   -1.608706   -0.293232
     27          1           0       -2.246191   -2.421156    0.817290
     28          1           0       -0.914239   -1.559497    2.771803
     29          1           0        0.189388   -0.742430    1.654971
     30          1           0        0.106912   -2.512123    1.681360
     31          6           0       -3.548455   -0.213009   -0.248772
     32          6           0       -4.396136    1.056301   -0.157812
     33          6           0       -5.501178    1.106083   -1.213368
     34          1           0       -3.102567   -0.276741   -1.251028
     35          1           0       -4.200684   -1.090405   -0.140528
     36          1           0       -3.741786    1.930782   -0.266094
     37          1           0       -4.839178    1.118331    0.844427
     38          1           0       -6.177365    0.252057   -1.103777
     39          1           0       -5.073739    1.069124   -2.220608
     40          1           0       -6.094889    2.021749   -1.130164
 ---------------------------------------------------------------------

 SCF Done:  E(RHF) =  -470.732694476     A.U. after   11 cycles
 E2 =    -0.1583902180D+01 EUMP2 =    -0.47231659665635D+03

 The electronic state is 1-A.
 Alpha  occ. eigenvalues --  -11.21653 -11.21614 -11.21611 -11.21601 -11.21419
 Alpha  occ. eigenvalues --  -11.21410 -11.21360 -11.21336 -11.21106 -11.21082
 Alpha  occ. eigenvalues --  -11.21074 -11.20914  -1.08477  -1.08414  -1.03575
 Alpha  occ. eigenvalues --   -1.03496  -0.96007  -0.95952  -0.87029  -0.86965
 Alpha  occ. eigenvalues --   -0.79646  -0.79565  -0.78308  -0.78214  -0.65205
 Alpha  occ. eigenvalues --   -0.64963  -0.61046  -0.60843  -0.59447  -0.59252
 Alpha  occ. eigenvalues --   -0.57743  -0.57451  -0.55348  -0.55206  -0.52706
 Alpha  occ. eigenvalues --   -0.52653  -0.52537  -0.52250  -0.50009  -0.49856
 Alpha  occ. eigenvalues --   -0.47914  -0.47909  -0.46716  -0.46618  -0.45919
 Alpha  occ. eigenvalues --   -0.45777  -0.45694  -0.45463  -0.43804  -0.43766
 Alpha virt. eigenvalues --    0.20207   0.23070   0.23367   0.24250   0.26063
 Alpha virt. eigenvalues --    0.26074   0.26644   0.27752   0.27980   0.29893
 Alpha virt. eigenvalues --    0.29993   0.31301   0.31660   0.32251   0.32427

 Mulliken charges:
               1
     1  C   -0.302816
     2  C   -0.299430
     3  C   -0.478290
     4  H    0.150783
     5  H    0.155199
     6  H    0.151898
     7  H    0.151458
     8  H    0.157989
     9  H    0.155450
    10  H    0.160089
    11  C   -0.297904
    12  C   -0.300482
    13  C   -0.475592
    14  H    0.149627
    15  H    0.149272
    16  H    0.152423
    17  H    0.150954
    18  H    0.155189
    19  H    0.155495
    20  H    0.160442
    21  C   -0.298230
    22  C   -0.302694
    23  C   -0.480386
    24  H    0.148816
    25  H    0.150061
    26  H    0.151570
    27  H    0.152312
    28  H    0.154000
    29  H    0.160806
    30  H    0.162072
    31  C   -0.298248
    32  C   -0.299636
    33  C   -0.475703
    34  H    0.149134
    35  H    0.149851
    36  H    0.151798
    37  H    0.152065
    38  H    0.155252
    39  H    0.155098
    40  H    0.160307
 Sum of Mulliken charges =  -0.00000

 Dipole moment (field-independent basis, Debye):
    X=              0.0293    Y=             -0.0002    Z=              0.0095  Tot=              0.0308
 Quadrupole moment (field-independent basis, Debye-Ang):
   XX=            -84.5586   YY=            -85.6959   ZZ=            -84.4892
   XY=             -0.0647   XZ=             -0.4340   YZ=             -0.2212

 Normal termination of Gaussian 16 at Thu May  6 03:51:46 2021.
