 Gaussian 16, Revision A.03,
 Gaussian 16:  EM64L-G16RevA.03 25-Dec-2016

 -------------
 #p 6-31g* mp2
 -------------

 ------------------------------------------------------
 Input file generated by CHIRIPA (05-May-2021 14:53:15)
 ------------------------------------------------------
 Symbolic Z-matrix:
 Charge =  0 Multiplicity = 1

                         Standard orientation:
 ---------------------------------------------------------------------
 Center     Atomic      Atomic             Coordinates (Angstroms)
 Number     Number       Type             X           Y           Z
 ---------------------------------------------------------------------
      1          6           0        4.654012    0.671479    0.273984
      2          6           0        3.159304    0.349273    0.277853
      3          6           0        2.294794    1.558667    0.635317
      4          1           0        4.943329    1.051189    1.263460
      5          1           0        4.845004    1.483974   -0.440697
      6          1           0        2.971390   -0.463313    0.991301
      7          1           0        2.873552   -0.029894   -0.711689
      8          1           0        2.452979    2.370718   -0.081727
      9          1           0        2.551373    1.934837    1.630939
     10          1           0        1.229909    1.305940    0.632175
     11          6           0        5.531292   -0.527556   -0.081576
     12          6           0        7.026000   -0.205349   -0.085446
     13          6           0        7.890511   -1.414744   -0.442909
     14          1           0        5.340300   -1.340050    0.633105
     15          1           0        5.241976   -0.907265   -1.071052
     16          1           0        7.311753    0.173818    0.904097
     17          1           0        7.213915    0.607237   -0.798893
     18          1           0        7.633931   -1.790913   -1.438532
     19          1           0        7.732325   -2.226795    0.274135
     20          1           0        8.955395   -1.162017   -0.439767
     21          6           0       -2.785217    2.152975   -0.322406
     22          6           0       -2.050343    0.965531   -0.242044
     23          6           0       -2.701036   -0.264244   -0.104932
     24          6           0       -4.094010   -0.269797   -0.051256
     25          6           0       -4.854109    0.896197   -0.128697
     26          6           0       -4.182291    2.114586   -0.265576
     27          1           0       -2.271537    3.103872   -0.428827
     28          1           0       -0.965261    0.992320   -0.285907
     29          1           0       -2.156763   -1.198600   -0.040401
     30          1           0       -5.934765    0.837628   -0.082102
     31          1           0       -4.755586    3.035191   -0.327743
     32          7           0       -4.794051   -1.565678    0.093775
     33          8           0       -6.022114   -1.543669    0.138639
     34          8           0       -4.101424   -2.578861    0.159840
 ---------------------------------------------------------------------

 SCF Done:  E(RHF) =  -669.535539920     A.U. after   15 cycles
 E2 =    -0.2090620449D+01 EUMP2 =    -0.67162616036897D+03

 The electronic state is 1-A.
 Alpha  occ. eigenvalues --  -20.60739 -20.60734 -15.85793 -11.31155 -11.27729
 Alpha  occ. eigenvalues --  -11.27722 -11.27466 -11.26740 -11.26717 -11.22346
 Alpha  occ. eigenvalues --  -11.22088 -11.21953 -11.21941 -11.21791 -11.21336
 Alpha  occ. eigenvalues --   -1.59815  -1.39368  -1.19329  -1.08962  -1.08723
 Alpha  occ. eigenvalues --   -1.04734  -1.04102  -0.96566  -0.95558  -0.87587
 Alpha  occ. eigenvalues --   -0.86131  -0.82392  -0.80169  -0.78737  -0.77442
 Alpha  occ. eigenvalues --   -0.72011  -0.71138  -0.70435  -0.65585  -0.64981
 Alpha  occ. eigenvalues --   -0.64769  -0.62120  -0.61486  -0.59961  -0.58163
 Alpha  occ. eigenvalues --   -0.55834  -0.55233  -0.53395  -0.53061  -0.53037
 Alpha  occ. eigenvalues --   -0.52658  -0.50487  -0.48773  -0.48766  -0.48477
 Alpha  occ. eigenvalues --   -0.47183  -0.46289  -0.46186  -0.44775  -0.44349
 Alpha  occ. eigenvalues --   -0.37308  -0.36336
 Alpha virt. eigenvalues --    0.05096   0.11287   0.16572   0.19902   0.22527
 Alpha virt. eigenvalues --    0.23691   0.25910   0.26170   0.27022   0.28293
 Alpha virt. eigenvalues --    0.28477   0.30063   0.30873   0.31567   0.32150

 Mulliken charges:
               1
     1  C   -0.298896
     2  C   -0.300103
     3  C   -0.481232
     4  H    0.151155
     5  H    0.149936
     6  H    0.154860
     7  H    0.151690
     8  H    0.155958
     9  H    0.160624
    10  H    0.152514
    11  C   -0.298916
    12  C   -0.300082
    13  C   -0.476051
    14  H    0.151009
    15  H    0.150375
    16  H    0.152502
    17  H    0.152056
    18  H    0.155733
    19  H    0.156089
    20  H    0.161243
    21  C   -0.172763
    22  C   -0.226124
    23  C   -0.172889
    24  C    0.158772
    25  C   -0.171060
    26  C   -0.218604
    27  H    0.226186
    28  H    0.234296
    29  H    0.275894
    30  H    0.275506
    31  H    0.223315
    32  N    0.488069
    33  O   -0.460598
    34  O   -0.460464
 Sum of Mulliken charges =  -0.00000

 Dipole moment (field-independent basis, Debye):
    X=              2.6653    Y=              4.5668    Z=             -0.4924  Tot=              5.3106
 Quadrupole moment (field-independent basis, Debye-Ang):
   XX=           -110.9208   YY=            -97.1088   ZZ=            -94.6480
   XY=            -21.4222   XZ=              2.3687   YZ=             -0.5646

 Normal termination of Gaussian 16 at Thu May  6 13:50:56 2021.
