 Gaussian 16, Revision A.03,
 Gaussian 16:  EM64L-G16RevA.03 25-Dec-2016

 -------------
 #p 6-31g* mp2
 -------------

 ------------------------------------------------------
 Input file generated by CHIRIPA (05-May-2021 14:51:10)
 ------------------------------------------------------
 Symbolic Z-matrix:
 Charge =  0 Multiplicity = 1

                         Standard orientation:
 ---------------------------------------------------------------------
 Center     Atomic      Atomic             Coordinates (Angstroms)
 Number     Number       Type             X           Y           Z
 ---------------------------------------------------------------------
      1          6           0        2.387003    1.265167   -0.242517
      2          6           0        2.546111    2.563643    0.549082
      3          6           0        1.499352    3.614437    0.177702
      4          1           0        2.453401    1.487378   -1.316370
      5          1           0        1.380838    0.859068   -0.068989
      6          1           0        3.552159    2.966445    0.375204
      7          1           0        2.479518    2.338287    1.621181
      8          1           0        0.489654    3.236418    0.367994
      9          1           0        1.568389    3.868145   -0.885062
     10          1           0        1.631615    4.534541    0.755435
     11          6           0        3.426195    0.204914    0.117581
     12          6           0        3.267087   -1.093562   -0.674019
     13          6           0        4.313845   -2.144356   -0.302639
     14          1           0        4.432360    0.611012   -0.055948
     15          1           0        3.359797   -0.017298    1.191433
     16          1           0        3.333680   -0.868207   -1.746118
     17          1           0        2.261039   -1.496365   -0.500141
     18          1           0        4.244809   -2.398065    0.760125
     19          1           0        5.323544   -1.766338   -0.492931
     20          1           0        4.181583   -3.064460   -0.880371
     21          6           0       -3.411393   -0.230416    0.334444
     22          6           0       -4.185147    0.503841   -0.761072
     23          6           0       -5.191169    1.509985   -0.201258
     24          1           0       -4.122510   -0.748250    0.992551
     25          1           0       -2.886423    0.505580    0.959032
     26          1           0       -4.707388   -0.233403   -1.384249
     27          1           0       -3.472095    1.019830   -1.416760
     28          1           0       -4.682498    2.267166    0.404159
     29          1           0       -5.924809    1.006812    0.436856
     30          1           0       -5.733147    2.023443   -1.001559
     31          6           0       -2.401805   -1.239663   -0.209507
     32          6           0       -1.628050   -1.973922    0.886008
     33          6           0       -0.622029   -2.980066    0.326195
     34          1           0       -2.926775   -1.975660   -0.834096
     35          1           0       -1.690688   -0.721831   -0.867615
     36          1           0       -2.341103   -2.489910    1.541698
     37          1           0       -1.105810   -1.236677    1.509187
     38          1           0        0.111612   -2.476893   -0.311919
     39          1           0       -1.130700   -3.737247   -0.279223
     40          1           0       -0.080051   -3.493523    1.126496
 ---------------------------------------------------------------------

 SCF Done:  E(RHF) =  -470.733371326     A.U. after   11 cycles
 E2 =    -0.1582945635D+01 EUMP2 =    -0.47231631696028D+03

 The electronic state is 1-A.
 Alpha  occ. eigenvalues --  -11.21654 -11.21644 -11.21614 -11.21588 -11.21444
 Alpha  occ. eigenvalues --  -11.21437 -11.21377 -11.21376 -11.21118 -11.21106
 Alpha  occ. eigenvalues --  -11.21077 -11.21058  -1.08471  -1.08450  -1.03573
 Alpha  occ. eigenvalues --   -1.03538  -0.96016  -0.95994  -0.87043  -0.87001
 Alpha  occ. eigenvalues --   -0.79671  -0.79571  -0.78302  -0.78247  -0.65194
 Alpha  occ. eigenvalues --   -0.65000  -0.61082  -0.60840  -0.59379  -0.59367
 Alpha  occ. eigenvalues --   -0.57645  -0.57586  -0.55356  -0.55240  -0.52704
 Alpha  occ. eigenvalues --   -0.52690  -0.52462  -0.52402  -0.50087  -0.49843
 Alpha  occ. eigenvalues --   -0.48028  -0.47859  -0.46821  -0.46488  -0.45934
 Alpha  occ. eigenvalues --   -0.45788  -0.45758  -0.45532  -0.43815  -0.43806
 Alpha virt. eigenvalues --    0.20122   0.23208   0.23751   0.24498   0.25840
 Alpha virt. eigenvalues --    0.26996   0.27126   0.27593   0.28002   0.29152
 Alpha virt. eigenvalues --    0.30830   0.31565   0.31682   0.31921   0.31970

 Mulliken charges:
               1
     1  C   -0.299037
     2  C   -0.299680
     3  C   -0.475594
     4  H    0.149805
     5  H    0.148788
     6  H    0.152287
     7  H    0.152039
     8  H    0.154516
     9  H    0.155313
    10  H    0.160520
    11  C   -0.297568
    12  C   -0.308766
    13  C   -0.475034
    14  H    0.149697
    15  H    0.149686
    16  H    0.151687
    17  H    0.160365
    18  H    0.155194
    19  H    0.155030
    20  H    0.160546
    21  C   -0.298175
    22  C   -0.299794
    23  C   -0.475722
    24  H    0.149771
    25  H    0.149053
    26  H    0.151992
    27  H    0.152307
    28  H    0.155245
    29  H    0.155144
    30  H    0.160404
    31  C   -0.299184
    32  C   -0.299583
    33  C   -0.482860
    34  H    0.149849
    35  H    0.150357
    36  H    0.152325
    37  H    0.151260
    38  H    0.161706
    39  H    0.155844
    40  H    0.160271
 Sum of Mulliken charges =  -0.00000

 Dipole moment (field-independent basis, Debye):
    X=             -0.0031    Y=             -0.0104    Z=             -0.0078  Tot=              0.0134
 Quadrupole moment (field-independent basis, Debye-Ang):
   XX=            -84.8866   YY=            -85.3890   ZZ=            -84.3529
   XY=              1.9650   XZ=             -0.3631   YZ=             -0.3316

 Normal termination of Gaussian 16 at Wed May  5 21:24:33 2021.
