 Gaussian 16, Revision A.03,
 Gaussian 16:  EM64L-G16RevA.03 25-Dec-2016

 -------------
 #p 6-31g* mp2
 -------------

 ------------------------------------------------------
 Input file generated by CHIRIPA (05-May-2021 14:55:19)
 ------------------------------------------------------
 Symbolic Z-matrix:
 Charge =  0 Multiplicity = 1

                         Standard orientation:
 ---------------------------------------------------------------------
 Center     Atomic      Atomic             Coordinates (Angstroms)
 Number     Number       Type             X           Y           Z
 ---------------------------------------------------------------------
      1          6           0        1.225741   -0.302371    0.708907
      2          6           0        2.024811   -1.448509    0.775068
      3          6           0        3.369417   -1.399492    0.395356
      4          6           0        3.884580   -0.182280   -0.047693
      5          6           0        3.114045    0.976861   -0.124883
      6          6           0        1.771945    0.904528    0.259934
      7          1           0        0.182193   -0.349505    1.005859
      8          1           0        1.603307   -2.387166    1.123351
      9          1           0        4.010617   -2.271602    0.436629
     10          1           0        3.562517    1.898188   -0.476234
     11          1           0        1.153745    1.796225    0.207510
     12          7           0        5.306727   -0.118046   -0.452379
     13          8           0        5.736698    0.966454   -0.839189
     14          8           0        5.964507   -1.153416   -0.375100
     15          6           0       -5.169237   -0.315915    0.116051
     16          6           0       -6.406307   -0.270318   -0.781481
     17          6           0       -7.391189   -1.402592   -0.488634
     18          1           0       -4.666054   -1.283979   -0.012806
     19          1           0       -5.485387   -0.265441    1.167192
     20          1           0       -6.087836   -0.319469   -1.830659
     21          1           0       -6.906497    0.697825   -0.650615
     22          1           0       -7.737245   -1.353456    0.548878
     23          1           0       -6.913932   -2.376530   -0.637872
     24          1           0       -8.268049   -1.350869   -1.141551
     25          6           0       -4.175256    0.809654   -0.164702
     26          6           0       -2.938186    0.764057    0.732829
     27          6           0       -1.953306    1.896331    0.439983
     28          1           0       -3.859108    0.759179   -1.215843
     29          1           0       -4.678439    1.777718   -0.035845
     30          1           0       -2.437996   -0.204086    0.601964
     31          1           0       -3.256659    0.813209    1.782008
     32          1           0       -2.430562    2.870269    0.589220
     33          1           0       -1.607249    1.847194   -0.597529
     34          1           0       -1.076444    1.844607    1.092899
 ---------------------------------------------------------------------

 SCF Done:  E(RHF) =  -669.534927261     A.U. after   15 cycles
 E2 =    -0.2092034406D+01 EUMP2 =    -0.67162696166763D+03

 The electronic state is 1-A.
 Alpha  occ. eigenvalues --  -20.60699 -20.60694 -15.85751 -11.31098 -11.27668
 Alpha  occ. eigenvalues --  -11.27650 -11.27356 -11.26677 -11.26604 -11.22897
 Alpha  occ. eigenvalues --  -11.22514 -11.22339 -11.22227 -11.22141 -11.21593
 Alpha  occ. eigenvalues --   -1.59775  -1.39329  -1.19264  -1.09358  -1.08660
 Alpha  occ. eigenvalues --   -1.04671  -1.04486  -0.96951  -0.95496  -0.87978
 Alpha  occ. eigenvalues --   -0.86056  -0.82335  -0.80584  -0.79105  -0.77387
 Alpha  occ. eigenvalues --   -0.71970  -0.71098  -0.70407  -0.65983  -0.64922
 Alpha  occ. eigenvalues --   -0.64725  -0.62097  -0.61833  -0.60311  -0.58534
 Alpha  occ. eigenvalues --   -0.56205  -0.55125  -0.53714  -0.53353  -0.52991
 Alpha  occ. eigenvalues --   -0.52689  -0.50857  -0.48889  -0.48727  -0.48722
 Alpha  occ. eigenvalues --   -0.47590  -0.46658  -0.46537  -0.44739  -0.44721
 Alpha  occ. eigenvalues --   -0.37240  -0.36269
 Alpha virt. eigenvalues --    0.05139   0.11332   0.16623   0.19680   0.22406
 Alpha virt. eigenvalues --    0.23870   0.25336   0.25895   0.26286   0.27579
 Alpha virt. eigenvalues --    0.29308   0.29628   0.30339   0.31290   0.31804

 Mulliken charges:
               1
     1  C   -0.177385
     2  C   -0.219799
     3  C   -0.171023
     4  C    0.158368
     5  C   -0.171144
     6  C   -0.224196
     7  H    0.234071
     8  H    0.223065
     9  H    0.275156
    10  H    0.275343
    11  H    0.228894
    12  N    0.487985
    13  O   -0.460624
    14  O   -0.460710
    15  C   -0.299099
    16  C   -0.300432
    17  C   -0.476197
    18  H    0.149440
    19  H    0.150732
    20  H    0.153196
    21  H    0.153275
    22  H    0.155867
    23  H    0.155574
    24  H    0.162379
    25  C   -0.299130
    26  C   -0.303198
    27  C   -0.485295
    28  H    0.152085
    29  H    0.152970
    30  H    0.146892
    31  H    0.156349
    32  H    0.163954
    33  H    0.159109
    34  H    0.153526
 Sum of Mulliken charges =  -0.00000

 Dipole moment (field-independent basis, Debye):
    X=             -5.3441    Y=             -0.1711    Z=              1.3864  Tot=              5.5236
 Quadrupole moment (field-independent basis, Debye-Ang):
   XX=           -133.6468   YY=            -90.0460   ZZ=            -95.0511
   XY=             -1.6090   XZ=              5.7461   YZ=             -0.9958

 Normal termination of Gaussian 16 at Thu May  6 20:37:07 2021.
