 Gaussian 16, Revision A.03,
 Gaussian 16:  EM64L-G16RevA.03 25-Dec-2016

 -------------
 #p 6-31g* mp2
 -------------

 ------------------------------------------------------
 Input file generated by CHIRIPA (05-May-2021 14:51:14)
 ------------------------------------------------------
 Symbolic Z-matrix:
 Charge =  0 Multiplicity = 1

                         Standard orientation:
 ---------------------------------------------------------------------
 Center     Atomic      Atomic             Coordinates (Angstroms)
 Number     Number       Type             X           Y           Z
 ---------------------------------------------------------------------
      1          6           0        3.722013    0.612229   -0.409584
      2          6           0        2.224182    0.686654   -0.111345
      3          6           0        1.565604    1.934869   -0.699586
      4          1           0        4.213777    1.510275   -0.011302
      5          1           0        3.873419    0.629558   -1.497780
      6          1           0        2.075572    0.667794    0.975934
      7          1           0        1.735956   -0.211764   -0.510214
      8          1           0        1.684419    1.956652   -1.787708
      9          1           0        2.025965    2.841208   -0.293116
     10          1           0        0.495045    1.967880   -0.474479
     11          6           0        4.394519   -0.630053    0.171964
     12          6           0        5.892351   -0.704477   -0.126275
     13          6           0        6.550928   -1.952692    0.461967
     14          1           0        4.243114   -0.647382    1.260160
     15          1           0        3.902755   -1.528098   -0.226318
     16          1           0        6.380577    0.193940    0.272595
     17          1           0        6.040961   -0.685618   -1.213554
     18          1           0        6.090568   -2.859032    0.055496
     19          1           0        6.432114   -1.974475    1.550089
     20          1           0        7.621487   -1.985704    0.236859
     21          6           0       -4.511451   -0.424222   -0.317596
     22          6           0       -5.007934   -1.686036    0.389027
     23          6           0       -5.913431   -2.542214   -0.496878
     24          1           0       -5.376039    0.170080   -0.643533
     25          1           0       -3.968688   -0.712053   -1.228616
     26          1           0       -5.548409   -1.395970    1.299173
     27          1           0       -4.142061   -2.277310    0.713489
     28          1           0       -5.380774   -2.860060   -1.399014
     29          1           0       -6.795111   -1.973712   -0.810003
     30          1           0       -6.256877   -3.439077    0.028042
     31          6           0       -3.605082    0.442047    0.555216
     32          6           0       -3.108598    1.703859   -0.151408
     33          6           0       -2.203101    2.560037    0.734497
     34          1           0       -4.147845    0.729877    1.466235
     35          1           0       -2.740493   -0.152257    0.881154
     36          1           0       -3.974471    2.295133   -0.475870
     37          1           0       -2.568123    1.413793   -1.061553
     38          1           0       -1.321421    1.991536    1.047623
     39          1           0       -2.735759    2.877884    1.636634
     40          1           0       -1.859655    3.456900    0.209577
 ---------------------------------------------------------------------

 SCF Done:  E(RHF) =  -470.733050498     A.U. after   11 cycles
 E2 =    -0.1582504690D+01 EUMP2 =    -0.47231555518771D+03

 The electronic state is 1-A.
 Alpha  occ. eigenvalues --  -11.21624 -11.21607 -11.21601 -11.21601 -11.21415
 Alpha  occ. eigenvalues --  -11.21402 -11.21355 -11.21342 -11.21078 -11.21076
 Alpha  occ. eigenvalues --  -11.21072 -11.20980  -1.08446  -1.08422  -1.03566
 Alpha  occ. eigenvalues --   -1.03501  -0.96042  -0.95921  -0.87072  -0.86923
 Alpha  occ. eigenvalues --   -0.79631  -0.79559  -0.78253  -0.78240  -0.65084
 Alpha  occ. eigenvalues --   -0.65055  -0.61023  -0.60913  -0.59422  -0.59263
 Alpha  occ. eigenvalues --   -0.57615  -0.57585  -0.55311  -0.55232  -0.52797
 Alpha  occ. eigenvalues --   -0.52547  -0.52451  -0.52328  -0.49936  -0.49873
 Alpha  occ. eigenvalues --   -0.47953  -0.47857  -0.46639  -0.46612  -0.45794
 Alpha  occ. eigenvalues --   -0.45779  -0.45719  -0.45707  -0.43832  -0.43711
 Alpha virt. eigenvalues --    0.21401   0.23048   0.23542   0.25095   0.26544
 Alpha virt. eigenvalues --    0.26641   0.27284   0.27445   0.27639   0.28904
 Alpha virt. eigenvalues --    0.31032   0.31399   0.31500   0.31739   0.32059

 Mulliken charges:
               1
     1  C   -0.298141
     2  C   -0.299675
     3  C   -0.484176
     4  H    0.149788
     5  H    0.149558
     6  H    0.151515
     7  H    0.151113
     8  H    0.154417
     9  H    0.155041
    10  H    0.170581
    11  C   -0.298252
    12  C   -0.299649
    13  C   -0.475700
    14  H    0.149494
    15  H    0.149456
    16  H    0.151991
    17  H    0.151914
    18  H    0.155121
    19  H    0.155186
    20  H    0.160262
    21  C   -0.298315
    22  C   -0.299688
    23  C   -0.475711
    24  H    0.149690
    25  H    0.149544
    26  H    0.151950
    27  H    0.152003
    28  H    0.155168
    29  H    0.155194
    30  H    0.160280
    31  C   -0.298332
    32  C   -0.301687
    33  C   -0.479374
    34  H    0.149625
    35  H    0.149883
    36  H    0.152435
    37  H    0.152836
    38  H    0.157207
    39  H    0.156085
    40  H    0.161362
 Sum of Mulliken charges =  -0.00000

 Dipole moment (field-independent basis, Debye):
    X=             -0.0282    Y=              0.0148    Z=              0.0078  Tot=              0.0328
 Quadrupole moment (field-independent basis, Debye-Ang):
   XX=            -84.9313   YY=            -85.4807   ZZ=            -84.3346
   XY=             -0.3112   XZ=             -0.6606   YZ=              0.5847

 Normal termination of Gaussian 16 at Wed May  5 16:52:57 2021.
