 Gaussian 16, Revision A.03,
 Gaussian 16:  EM64L-G16RevA.03 25-Dec-2016

 -------------
 #p 6-31g* mp2
 -------------

 ------------------------------------------------------
 Input file generated by CHIRIPA (05-May-2021 14:53:17)
 ------------------------------------------------------
 Symbolic Z-matrix:
 Charge =  0 Multiplicity = 1

                         Standard orientation:
 ---------------------------------------------------------------------
 Center     Atomic      Atomic             Coordinates (Angstroms)
 Number     Number       Type             X           Y           Z
 ---------------------------------------------------------------------
      1          6           0        3.850394    0.754591    0.047840
      2          6           0        2.901146    1.941246   -0.121751
      3          6           0        3.521799    3.263877    0.329061
      4          1           0        4.149560    0.680309    1.102320
      5          1           0        4.768763    0.943840   -0.525028
      6          1           0        1.984269    1.749197    0.450150
      7          1           0        2.604054    2.012596   -1.175915
      8          1           0        4.425572    3.482144   -0.249000
      9          1           0        3.802267    3.217249    1.386305
     10          1           0        2.826098    4.098728    0.199124
     11          6           0        3.244225   -0.574710   -0.398532
     12          6           0        4.193473   -1.761365   -0.228940
     13          6           0        3.572820   -3.083996   -0.679752
     14          1           0        2.325856   -0.763959    0.174337
     15          1           0        2.945059   -0.500428   -1.453011
     16          1           0        4.490565   -1.832715    0.825224
     17          1           0        5.110349   -1.569316   -0.800842
     18          1           0        3.292352   -3.037368   -1.736996
     19          1           0        2.669046   -3.302263   -0.101692
     20          1           0        4.268520   -3.918847   -0.549816
     21          6           0       -0.520796   -0.377676    1.235395
     22          6           0       -1.688916   -0.717369    1.925776
     23          6           0       -2.941294   -0.551250    1.327027
     24          6           0       -2.988909   -0.040547    0.030799
     25          6           0       -1.843054    0.307135   -0.682938
     26          6           0       -0.601451    0.132593   -0.064467
     27          1           0        0.447896   -0.509993    1.708178
     28          1           0       -1.629306   -1.113865    2.935371
     29          1           0       -3.861469   -0.806079    1.838649
     30          1           0       -1.934385    0.700130   -1.688240
     31          1           0        0.304064    0.397258   -0.603021
     32          7           0       -4.309042    0.139775   -0.613510
     33          8           0       -4.324051    0.591605   -1.756427
     34          8           0       -5.303756   -0.174134    0.036599
 ---------------------------------------------------------------------

 SCF Done:  E(RHF) =  -669.534152804     A.U. after   15 cycles
 E2 =    -0.2093765406D+01 EUMP2 =    -0.67162791821031D+03

 The electronic state is 1-A.
 Alpha  occ. eigenvalues --  -20.60716 -20.60711 -15.85766 -11.31126 -11.27684
 Alpha  occ. eigenvalues --  -11.27650 -11.27412 -11.26718 -11.26576 -11.22750
 Alpha  occ. eigenvalues --  -11.22656 -11.22547 -11.22466 -11.21927 -11.21860
 Alpha  occ. eigenvalues --   -1.59791  -1.39345  -1.19286  -1.09569  -1.08685
 Alpha  occ. eigenvalues --   -1.04682  -1.04516  -0.96951  -0.95531  -0.87960
 Alpha  occ. eigenvalues --   -0.86102  -0.82357  -0.80614  -0.79465  -0.77379
 Alpha  occ. eigenvalues --   -0.71987  -0.71113  -0.70445  -0.66244  -0.64926
 Alpha  occ. eigenvalues --   -0.64647  -0.62063  -0.61893  -0.60311  -0.58573
 Alpha  occ. eigenvalues --   -0.56253  -0.55197  -0.53621  -0.53387  -0.52999
 Alpha  occ. eigenvalues --   -0.52768  -0.50887  -0.48919  -0.48744  -0.48739
 Alpha  occ. eigenvalues --   -0.47650  -0.46858  -0.46795  -0.44805  -0.44752
 Alpha  occ. eigenvalues --   -0.37263  -0.36267
 Alpha virt. eigenvalues --    0.05103   0.11227   0.16585   0.19692   0.22554
 Alpha virt. eigenvalues --    0.23417   0.24405   0.25384   0.27001   0.28114
 Alpha virt. eigenvalues --    0.30055   0.30498   0.30974   0.31279   0.31503

 Mulliken charges:
               1
     1  C   -0.297053
     2  C   -0.308596
     3  C   -0.475419
     4  H    0.150634
     5  H    0.154955
     6  H    0.149206
     7  H    0.151769
     8  H    0.158511
     9  H    0.156788
    10  H    0.164203
    11  C   -0.307742
    12  C   -0.299730
    13  C   -0.476395
    14  H    0.143342
    15  H    0.151466
    16  H    0.152524
    17  H    0.156137
    18  H    0.157657
    19  H    0.154291
    20  H    0.163827
    21  C   -0.177522
    22  C   -0.218151
    23  C   -0.171474
    24  C    0.158775
    25  C   -0.173746
    26  C   -0.221895
    27  H    0.226380
    28  H    0.222994
    29  H    0.275262
    30  H    0.275578
    31  H    0.236445
    32  N    0.488045
    33  O   -0.460443
    34  O   -0.460621
 Sum of Mulliken charges =  -0.00000

 Dipole moment (field-independent basis, Debye):
    X=              4.9130    Y=             -0.6107    Z=              2.2110  Tot=              5.4221
 Quadrupole moment (field-independent basis, Debye-Ang):
   XX=           -121.1051   YY=            -95.3088   ZZ=            -90.6244
   XY=              2.4326   XZ=             -9.3854   YZ=             -2.1652

 Normal termination of Gaussian 16 at Thu May  6 18:58:18 2021.
