 Gaussian 16, Revision A.03,
 Gaussian 16:  EM64L-G16RevA.03 25-Dec-2016

 -------------
 #p 6-31g* mp2
 -------------

 ------------------------------------------------------
 Input file generated by CHIRIPA (05-May-2021 14:55:22)
 ------------------------------------------------------
 Symbolic Z-matrix:
 Charge =  0 Multiplicity = 1

                         Standard orientation:
 ---------------------------------------------------------------------
 Center     Atomic      Atomic             Coordinates (Angstroms)
 Number     Number       Type             X           Y           Z
 ---------------------------------------------------------------------
      1          6           0       -4.867747    0.968543    0.777798
      2          6           0       -4.939946   -0.266828    0.125750
      3          6           0       -3.784224   -0.874766   -0.373516
      4          6           0       -2.567448   -0.216371   -0.202452
      5          6           0       -2.462996    1.014996    0.442618
      6          6           0       -3.631682    1.604391    0.933876
      7          1           0       -5.770575    1.433601    1.162530
      8          1           0       -5.898527   -0.762938    0.003099
      9          1           0       -3.811424   -1.830676   -0.882353
     10          1           0       -1.493063    1.485292    0.549718
     11          1           0       -3.572604    2.563846    1.439841
     12          7           0       -1.337075   -0.850153   -0.726764
     13          8           0       -0.277227   -0.249633   -0.563254
     14          8           0       -1.455853   -1.935430   -1.291301
     15          6           0        3.498606   -0.588432   -0.065556
     16          6           0        3.632415   -1.570701    1.098586
     17          6           0        3.535750   -3.030540    0.654378
     18          1           0        2.537453   -0.756712   -0.570345
     19          1           0        4.282016   -0.799856   -0.806475
     20          1           0        2.849840   -1.356596    1.837743
     21          1           0        4.593277   -1.399934    1.600780
     22          1           0        4.325343   -3.267051   -0.066182
     23          1           0        2.572000   -3.223465    0.172126
     24          1           0        3.633971   -3.715538    1.502311
     25          6           0        3.593178    0.874938    0.362617
     26          6           0        3.459370    1.857207   -0.801526
     27          6           0        3.556034    3.317047   -0.357317
     28          1           0        2.809767    1.086363    1.103537
     29          1           0        4.554332    1.043219    0.867405
     30          1           0        2.498507    1.686441   -1.303719
     31          1           0        4.241944    1.643103   -1.540682
     32          1           0        4.519784    3.509971    0.124934
     33          1           0        2.766442    3.553556    0.363243
     34          1           0        3.457814    4.002045   -1.205251
 ---------------------------------------------------------------------

 SCF Done:  E(RHF) =  -669.536575427     A.U. after   15 cycles
 E2 =    -0.2091384544D+01 EUMP2 =    -0.67162795997066D+03

 The electronic state is 1-A.
 Alpha  occ. eigenvalues --  -20.61098 -20.61090 -15.86121 -11.31384 -11.27940
 Alpha  occ. eigenvalues --  -11.27935 -11.27665 -11.26933 -11.26923 -11.20574
 Alpha  occ. eigenvalues --  -11.20401 -11.20391 -11.20249 -11.19886 -11.19810
 Alpha  occ. eigenvalues --   -1.60151  -1.39709  -1.19546  -1.08961  -1.07211
 Alpha  occ. eigenvalues --   -1.04933  -1.02451  -0.95813  -0.94902  -0.86336
 Alpha  occ. eigenvalues --   -0.85927  -0.82649  -0.78519  -0.77709  -0.76993
 Alpha  occ. eigenvalues --   -0.72349  -0.71458  -0.70654  -0.65206  -0.64936
 Alpha  occ. eigenvalues --   -0.63804  -0.62281  -0.59846  -0.58296  -0.56518
 Alpha  occ. eigenvalues --   -0.55440  -0.54182  -0.53268  -0.53024  -0.51662
 Alpha  occ. eigenvalues --   -0.51341  -0.49184  -0.49092  -0.48772  -0.46847
 Alpha  occ. eigenvalues --   -0.45543  -0.45121  -0.44579  -0.44324  -0.42654
 Alpha  occ. eigenvalues --   -0.37521  -0.36531
 Alpha virt. eigenvalues --    0.04814   0.11125   0.16321   0.21188   0.23881
 Alpha virt. eigenvalues --    0.25319   0.27129   0.27525   0.28392   0.28798
 Alpha virt. eigenvalues --    0.29067   0.30912   0.32146   0.32563   0.32838

 Mulliken charges:
               1
     1  C   -0.170389
     2  C   -0.218601
     3  C   -0.170350
     4  C    0.157560
     5  C   -0.170719
     6  C   -0.218517
     7  H    0.226380
     8  H    0.224151
     9  H    0.276064
    10  H    0.275574
    11  H    0.224261
    12  N    0.491704
    13  O   -0.464008
    14  O   -0.458274
    15  C   -0.310780
    16  C   -0.296991
    17  C   -0.477401
    18  H    0.181893
    19  H    0.142676
    20  H    0.149732
    21  H    0.145159
    22  H    0.151909
    23  H    0.164777
    24  H    0.154110
    25  C   -0.294234
    26  C   -0.302385
    27  C   -0.474287
    28  H    0.146741
    29  H    0.143091
    30  H    0.162326
    31  H    0.149246
    32  H    0.152865
    33  H    0.149841
    34  H    0.156876
 Sum of Mulliken charges =  -0.00000

 Dipole moment (field-independent basis, Debye):
    X=             -4.7602    Y=              2.1311    Z=              1.7078  Tot=              5.4880
 Quadrupole moment (field-independent basis, Debye-Ang):
   XX=            -71.7452   YY=            -94.8999   ZZ=            -95.9130
   XY=             -2.7515   XZ=             -3.5736   YZ=              0.7682

 Normal termination of Gaussian 16 at Wed May  5 19:02:34 2021.
