 Gaussian 16, Revision A.03,
 Gaussian 16:  EM64L-G16RevA.03 25-Dec-2016

 -------------
 #p 6-31g* mp2
 -------------

 ------------------------------------------------------
 Input file generated by CHIRIPA (05-May-2021 14:53:15)
 ------------------------------------------------------
 Symbolic Z-matrix:
 Charge =  0 Multiplicity = 1

                         Standard orientation:
 ---------------------------------------------------------------------
 Center     Atomic      Atomic             Coordinates (Angstroms)
 Number     Number       Type             X           Y           Z
 ---------------------------------------------------------------------
      1          6           0       -3.589957   -0.364098    0.268163
      2          6           0       -3.774012   -1.818130   -0.167611
      3          6           0       -4.535665   -2.652216    0.862912
      4          1           0       -3.056077   -0.340433    1.228036
      5          1           0       -4.576474    0.085150    0.448040
      6          1           0       -2.787498   -2.264093   -0.347949
      7          1           0       -4.307347   -1.838329   -1.126653
      8          1           0       -5.532275   -2.233670    1.036662
      9          1           0       -4.003790   -2.661854    1.819791
     10          1           0       -4.655914   -3.688236    0.531155
     11          6           0       -2.830303    0.482448   -0.751648
     12          6           0       -2.646248    1.936480   -0.315874
     13          6           0       -1.884595    2.770566   -1.346398
     14          1           0       -1.843786    0.033200   -0.931525
     15          1           0       -3.364183    0.458783   -1.711522
     16          1           0       -2.112913    1.956679    0.643168
     17          1           0       -3.632763    2.382443   -0.135537
     18          1           0       -2.416470    2.780204   -2.303277
     19          1           0       -0.887985    2.352020   -1.520147
     20          1           0       -1.764347    3.806586   -1.014641
     21          6           0        3.731497   -1.384043   -1.565853
     22          6           0        4.182714   -1.387739   -0.241878
     23          6           0        3.512580   -0.650191    0.738679
     24          6           0        2.389623    0.083104    0.358501
     25          6           0        1.915537    0.106951   -0.952211
     26          6           0        2.601341   -0.638026   -1.916176
     27          1           0        4.258160   -1.959874   -2.321129
     28          1           0        5.060126   -1.966184    0.033068
     29          1           0        3.840255   -0.635259    1.771067
     30          1           0        1.037922    0.693300   -1.195940
     31          1           0        2.248652   -0.633291   -2.943616
     32          7           0        1.671888    0.867846    1.387790
     33          8           0        0.685066    1.505668    1.027230
     34          8           0        2.109738    0.830244    2.535619
 ---------------------------------------------------------------------

 SCF Done:  E(RHF) =  -669.535898827     A.U. after   15 cycles
 E2 =    -0.2092523898D+01 EUMP2 =    -0.67162842272534D+03

 The electronic state is 1-A.
 Alpha  occ. eigenvalues --  -20.60970 -20.60960 -15.86001 -11.31306 -11.27864
 Alpha  occ. eigenvalues --  -11.27860 -11.27595 -11.26870 -11.26858 -11.21267
 Alpha  occ. eigenvalues --  -11.20882 -11.20822 -11.20768 -11.20625 -11.20442
 Alpha  occ. eigenvalues --   -1.60031  -1.39588  -1.19471  -1.08879  -1.07866
 Alpha  occ. eigenvalues --   -1.04865  -1.02957  -0.95730  -0.95449  -0.86481
 Alpha  occ. eigenvalues --   -0.86267  -0.82561  -0.79038  -0.77686  -0.77615
 Alpha  occ. eigenvalues --   -0.72245  -0.71345  -0.70583  -0.65142  -0.64886
 Alpha  occ. eigenvalues --   -0.64447  -0.62229  -0.60296  -0.58829  -0.57060
 Alpha  occ. eigenvalues --   -0.55372  -0.54745  -0.53196  -0.52961  -0.52149
 Alpha  occ. eigenvalues --   -0.51894  -0.49434  -0.48980  -0.48971  -0.47365
 Alpha  occ. eigenvalues --   -0.46050  -0.45268  -0.45138  -0.44885  -0.43229
 Alpha  occ. eigenvalues --   -0.37448  -0.36462
 Alpha virt. eigenvalues --    0.04884   0.11151   0.16395   0.20062   0.23148
 Alpha virt. eigenvalues --    0.24048   0.26165   0.27539   0.28053   0.28167
 Alpha virt. eigenvalues --    0.29330   0.30545   0.31463   0.32370   0.32400

 Mulliken charges:
               1
     1  C   -0.299247
     2  C   -0.298866
     3  C   -0.475509
     4  H    0.156000
     5  H    0.148873
     6  H    0.148932
     7  H    0.149564
     8  H    0.155152
     9  H    0.156531
    10  H    0.157842
    11  C   -0.296766
    12  C   -0.304275
    13  C   -0.474868
    14  H    0.142243
    15  H    0.144329
    16  H    0.178286
    17  H    0.147033
    18  H    0.147579
    19  H    0.150828
    20  H    0.163140
    21  C   -0.170075
    22  C   -0.218980
    23  C   -0.169562
    24  C    0.154593
    25  C   -0.176451
    26  C   -0.222205
    27  H    0.226175
    28  H    0.223887
    29  H    0.275847
    30  H    0.288713
    31  H    0.224936
    32  N    0.491916
    33  O   -0.466829
    34  O   -0.458764
 Sum of Mulliken charges =  -0.00000

 Dipole moment (field-independent basis, Debye):
    X=              2.6920    Y=             -2.6951    Z=             -3.4076  Tot=              5.1110
 Quadrupole moment (field-independent basis, Debye-Ang):
   XX=            -80.7486   YY=            -96.0208   ZZ=            -95.7019
   XY=             -8.6126   XZ=             -5.0927   YZ=             -1.7668

 Normal termination of Gaussian 16 at Thu May  6 07:27:18 2021.
