 Gaussian 16, Revision A.03,
 Gaussian 16:  EM64L-G16RevA.03 25-Dec-2016

 -------------
 #p 6-31g* mp2
 -------------

 ------------------------------------------------------
 Input file generated by CHIRIPA (05-May-2021 14:51:12)
 ------------------------------------------------------
 Symbolic Z-matrix:
 Charge =  0 Multiplicity = 1

                         Standard orientation:
 ---------------------------------------------------------------------
 Center     Atomic      Atomic             Coordinates (Angstroms)
 Number     Number       Type             X           Y           Z
 ---------------------------------------------------------------------
      1          6           0       -2.956861   -0.101019   -0.019747
      2          6           0       -2.282156   -1.224902    0.767429
      3          6           0       -0.779850   -1.315971    0.498029
      4          1           0       -2.784300   -0.259018   -1.093155
      5          1           0       -2.478888    0.854683    0.236325
      6          1           0       -2.762176   -2.178020    0.510988
      7          1           0       -2.456505   -1.064313    1.839077
      8          1           0       -0.282017   -0.379997    0.771374
      9          1           0       -0.589424   -1.500033   -0.564261
     10          1           0       -0.317631   -2.125947    1.070874
     11          6           0       -4.458870    0.002698    0.238978
     12          6           0       -5.133574    1.126581   -0.548198
     13          6           0       -6.635881    1.217650   -0.278798
     14          1           0       -4.936842   -0.953003   -0.017094
     15          1           0       -4.631430    0.160698    1.312386
     16          1           0       -4.959225    0.965992   -1.619846
     17          1           0       -4.653555    2.079700   -0.291757
     18          1           0       -6.826306    1.401712    0.783492
     19          1           0       -7.133714    0.281677   -0.552143
     20          1           0       -7.098100    2.027627   -0.851643
     21          6           0        3.132610   -0.453032   -0.127384
     22          6           0        3.592348   -1.893997   -0.351545
     23          6           0        2.430126   -2.886942   -0.384640
     24          1           0        2.572822   -0.396063    0.816193
     25          1           0        2.430916   -0.171175   -0.924615
     26          1           0        4.294034   -2.172590    0.445097
     27          1           0        4.151271   -1.947505   -1.294603
     28          1           0        1.732405   -2.636624   -1.190324
     29          1           0        1.875978   -2.862988    0.559260
     30          1           0        2.781373   -3.910888   -0.545944
     31          6           0        4.283121    0.551353   -0.091847
     32          6           0        3.823382    1.992317    0.132314
     33          6           0        4.985604    2.985262    0.165409
     34          1           0        4.984815    0.269496    0.705383
     35          1           0        4.842909    0.494384   -1.035424
     36          1           0        3.264460    2.045825    1.075372
     37          1           0        3.121697    2.270910   -0.664328
     38          1           0        5.539752    2.961309   -0.778491
     39          1           0        5.683326    2.734945    0.971093
     40          1           0        4.634357    4.009208    0.326713
 ---------------------------------------------------------------------

 SCF Done:  E(RHF) =  -470.732123369     A.U. after   11 cycles
 E2 =    -0.1583453253D+01 EUMP2 =    -0.47231557662195D+03

 The electronic state is 1-A.
 Alpha  occ. eigenvalues --  -11.21585 -11.21577 -11.21527 -11.21518 -11.21375
 Alpha  occ. eigenvalues --  -11.21341 -11.21315 -11.21269 -11.21059 -11.21053
 Alpha  occ. eigenvalues --  -11.20950 -11.20914  -1.08404  -1.08361  -1.03530
 Alpha  occ. eigenvalues --   -1.03429  -0.95997  -0.95861  -0.87050  -0.86852
 Alpha  occ. eigenvalues --   -0.79711  -0.79402  -0.78261  -0.78105  -0.65045
 Alpha  occ. eigenvalues --   -0.64989  -0.60944  -0.60840  -0.59421  -0.59212
 Alpha  occ. eigenvalues --   -0.57638  -0.57459  -0.55254  -0.55186  -0.52852
 Alpha  occ. eigenvalues --   -0.52619  -0.52373  -0.52140  -0.49897  -0.49819
 Alpha  occ. eigenvalues --   -0.47937  -0.47773  -0.46655  -0.46489  -0.45879
 Alpha  occ. eigenvalues --   -0.45711  -0.45598  -0.45553  -0.43732  -0.43659
 Alpha virt. eigenvalues --    0.22027   0.23046   0.23629   0.24734   0.25746
 Alpha virt. eigenvalues --    0.26394   0.26758   0.27362   0.27858   0.29057
 Alpha virt. eigenvalues --    0.29618   0.30996   0.31619   0.32056   0.32434

 Mulliken charges:
               1
     1  C   -0.298538
     2  C   -0.300976
     3  C   -0.475828
     4  H    0.149262
     5  H    0.149411
     6  H    0.151627
     7  H    0.151178
     8  H    0.156586
     9  H    0.156013
    10  H    0.161318
    11  C   -0.298143
    12  C   -0.299575
    13  C   -0.475671
    14  H    0.149472
    15  H    0.149552
    16  H    0.151819
    17  H    0.151862
    18  H    0.155143
    19  H    0.155158
    20  H    0.160167
    21  C   -0.299536
    22  C   -0.299975
    23  C   -0.476673
    24  H    0.151753
    25  H    0.150209
    26  H    0.151159
    27  H    0.151213
    28  H    0.156028
    29  H    0.158561
    30  H    0.158535
    31  C   -0.298246
    32  C   -0.299557
    33  C   -0.475614
    34  H    0.149233
    35  H    0.149425
    36  H    0.151408
    37  H    0.151868
    38  H    0.155185
    39  H    0.155134
    40  H    0.160052
 Sum of Mulliken charges =  -0.00000

 Dipole moment (field-independent basis, Debye):
    X=             -0.0018    Y=             -0.0099    Z=              0.0027  Tot=              0.0104
 Quadrupole moment (field-independent basis, Debye-Ang):
   XX=            -86.7937   YY=            -85.1776   ZZ=            -83.1577
   XY=             -0.2633   XZ=              0.3283   YZ=              0.2973

 Normal termination of Gaussian 16 at Thu May  6 02:20:04 2021.
