 Gaussian 16, Revision A.03,
 Gaussian 16:  EM64L-G16RevA.03 25-Dec-2016

 -------------
 #p 6-31g* mp2
 -------------

 ------------------------------------------------------
 Input file generated by CHIRIPA (05-May-2021 14:53:15)
 ------------------------------------------------------
 Symbolic Z-matrix:
 Charge =  0 Multiplicity = 1

                         Standard orientation:
 ---------------------------------------------------------------------
 Center     Atomic      Atomic             Coordinates (Angstroms)
 Number     Number       Type             X           Y           Z
 ---------------------------------------------------------------------
      1          6           0       -3.070574    0.318098    0.843829
      2          6           0       -2.503961    1.737204    0.788391
      3          6           0       -1.707889    2.105229    2.040837
      4          1           0       -3.712709    0.220857    1.729917
      5          1           0       -2.244477   -0.394139    0.976792
      6          1           0       -3.330752    2.446444    0.654185
      7          1           0       -1.863252    1.831134   -0.097772
      8          1           0       -0.864228    1.420715    2.176031
      9          1           0       -2.340065    2.039521    2.932261
     10          1           0       -1.311990    3.123770    1.980013
     11          6           0       -3.868934   -0.064519   -0.401142
     12          6           0       -4.435546   -1.483625   -0.345705
     13          6           0       -5.231618   -1.851651   -1.598150
     14          1           0       -4.695030    0.647717   -0.534105
     15          1           0       -3.226798    0.032722   -1.287230
     16          1           0       -5.076255   -1.577556    0.540459
     17          1           0       -3.608756   -2.192866   -0.211498
     18          1           0       -4.599442   -1.785943   -2.489574
     19          1           0       -6.075279   -1.167137   -1.733345
     20          1           0       -5.627517   -2.870191   -1.537326
     21          6           0        3.279392   -1.996273    1.390125
     22          6           0        4.005602   -1.822080    0.207418
     23          6           0        3.699283   -0.774349   -0.666067
     24          6           0        2.655770    0.084362   -0.324035
     25          6           0        1.913813   -0.063031    0.846891
     26          6           0        2.237651   -1.117742    1.705530
     27          1           0        3.524151   -2.812888    2.062903
     28          1           0        4.815149   -2.502824   -0.040100
     29          1           0        4.245242   -0.616412   -1.588239
     30          1           0        1.112275    0.631738    1.066549
     31          1           0        1.671963   -1.250603    2.623348
     32          7           0        2.322211    1.197243   -1.240897
     33          8           0        1.398267    1.940116   -0.916702
     34          8           0        2.991028    1.305572   -2.266364
 ---------------------------------------------------------------------

 SCF Done:  E(RHF) =  -669.535768090     A.U. after   15 cycles
 E2 =    -0.2091584678D+01 EUMP2 =    -0.67162735276841D+03

 The electronic state is 1-A.
 Alpha  occ. eigenvalues --  -20.60845 -20.60839 -15.85888 -11.31220 -11.27792
 Alpha  occ. eigenvalues --  -11.27768 -11.27532 -11.26804 -11.26791 -11.21532
 Alpha  occ. eigenvalues --  -11.21348 -11.21291 -11.21216 -11.21143 -11.20977
 Alpha  occ. eigenvalues --   -1.59913  -1.39467  -1.19394  -1.08796  -1.08313
 Alpha  occ. eigenvalues --   -1.04795  -1.03427  -0.95913  -0.95633  -0.86931
 Alpha  occ. eigenvalues --   -0.86193  -0.82468  -0.79478  -0.78120  -0.77520
 Alpha  occ. eigenvalues --   -0.72109  -0.71232  -0.70513  -0.65049  -0.64991
 Alpha  occ. eigenvalues --   -0.64763  -0.62188  -0.60790  -0.59252  -0.57500
 Alpha  occ. eigenvalues --   -0.55385  -0.55149  -0.53125  -0.52892  -0.52584
 Alpha  occ. eigenvalues --   -0.52323  -0.49864  -0.48864  -0.48863  -0.47802
 Alpha  occ. eigenvalues --   -0.46497  -0.45678  -0.45572  -0.44866  -0.43674
 Alpha  occ. eigenvalues --   -0.37376  -0.36396
 Alpha virt. eigenvalues --    0.04995   0.11248   0.16489   0.19796   0.22969
 Alpha virt. eigenvalues --    0.23911   0.26038   0.27254   0.27717   0.27911
 Alpha virt. eigenvalues --    0.29313   0.30837   0.31531   0.31840   0.32103

 Mulliken charges:
               1
     1  C   -0.297106
     2  C   -0.306522
     3  C   -0.473298
     4  H    0.147572
     5  H    0.142560
     6  H    0.152905
     7  H    0.170098
     8  H    0.138601
     9  H    0.153899
    10  H    0.168215
    11  C   -0.298966
    12  C   -0.299304
    13  C   -0.475766
    14  H    0.150405
    15  H    0.153993
    16  H    0.150695
    17  H    0.149920
    18  H    0.156541
    19  H    0.155688
    20  H    0.159114
    21  C   -0.170556
    22  C   -0.219064
    23  C   -0.169986
    24  C    0.158312
    25  C   -0.181550
    26  C   -0.221986
    27  H    0.225846
    28  H    0.223620
    29  H    0.275644
    30  H    0.290440
    31  H    0.223797
    32  N    0.487548
    33  O   -0.461577
    34  O   -0.459732
 Sum of Mulliken charges =  -0.00000

 Dipole moment (field-independent basis, Debye):
    X=              1.1717    Y=             -3.8063    Z=              3.1073  Tot=              5.0514
 Quadrupole moment (field-independent basis, Debye-Ang):
   XX=            -85.7852   YY=            -95.4191   ZZ=            -96.1151
   XY=            -12.6722   XZ=              5.0231   YZ=              2.2660

 Normal termination of Gaussian 16 at Thu May  6 05:54:10 2021.
