 Gaussian 16, Revision A.03,
 Gaussian 16:  EM64L-G16RevA.03 25-Dec-2016

 -------------
 #p 6-31g* mp2
 -------------

 ------------------------------------------------------
 Input file generated by CHIRIPA (05-May-2021 14:57:27)
 ------------------------------------------------------
 Symbolic Z-matrix:
 Charge =  0 Multiplicity = 1

                         Standard orientation:
 ---------------------------------------------------------------------
 Center     Atomic      Atomic             Coordinates (Angstroms)
 Number     Number       Type             X           Y           Z
 ---------------------------------------------------------------------
      1          6           0        2.811522   -2.305073    0.034843
      2          6           0        2.961463   -1.635676    1.253838
      3          6           0        2.976090   -0.238447    1.299481
      4          6           0        2.837662    0.460998    0.101606
      5          6           0        2.686593   -0.177108   -1.128553
      6          6           0        2.674807   -1.574939   -1.150372
      7          1           0        2.801263   -3.390708    0.008640
      8          1           0        3.067843   -2.200118    2.175865
      9          1           0        3.090688    0.305217    2.229381
     10          1           0        2.582708    0.412848   -2.031092
     11          1           0        2.558205   -2.092135   -2.098506
     12          7           0        2.851643    1.940501    0.137315
     13          8           0        2.727865    2.533671   -0.932015
     14          8           0        2.986116    2.478952    1.233958
     15          6           0       -4.564168    1.584124    0.268311
     16          6           0       -3.482117    1.815090   -0.587457
     17          6           0       -2.518239    0.824267   -0.796641
     18          6           0       -2.668222   -0.391300   -0.130914
     19          6           0       -3.735002   -0.651637    0.727862
     20          6           0       -4.686941    0.353667    0.922088
     21          1           0       -5.308294    2.359444    0.425000
     22          1           0       -3.384211    2.769720   -1.096516
     23          1           0       -1.670585    0.976406   -1.453721
     24          1           0       -3.805640   -1.613365    1.221327
     25          1           0       -5.526232    0.171501    1.587258
     26          7           0       -1.654128   -1.447905   -0.344449
     27          8           0       -1.809023   -2.510289    0.253869
     28          8           0       -0.723587   -1.193681   -1.106093
 ---------------------------------------------------------------------

 SCF Done:  E(RHF) =  -868.339189990     A.U. after   16 cycles
 E2 =    -0.2599914384D+01 EUMP2 =    -0.87093910437341D+03

 The electronic state is 1-A.
 Alpha  occ. eigenvalues --  -20.61089 -20.61063 -20.60141 -20.60130 -15.86107
 Alpha  occ. eigenvalues --  -15.85175 -11.31269 -11.30143 -11.27833 -11.27784
 Alpha  occ. eigenvalues --  -11.27516 -11.26804 -11.26745 -11.26701 -11.26620
 Alpha  occ. eigenvalues --  -11.26277 -11.25651 -11.25517  -1.60147  -1.59223
 Alpha  occ. eigenvalues --   -1.39708  -1.38787  -1.19422  -1.18257  -1.08858
 Alpha  occ. eigenvalues --   -1.07725  -1.04790  -1.03611  -0.95729  -0.94636
 Alpha  occ. eigenvalues --   -0.86201  -0.85042  -0.82571  -0.81496  -0.77639
 Alpha  occ. eigenvalues --   -0.76599  -0.72361  -0.71455  -0.71410  -0.70540
 Alpha  occ. eigenvalues --   -0.70530  -0.69387  -0.65079  -0.64791  -0.63927
 Alpha  occ. eigenvalues --   -0.63645  -0.62140  -0.61008  -0.55304  -0.54128
 Alpha  occ. eigenvalues --   -0.53137  -0.52880  -0.51941  -0.51737  -0.49110
 Alpha  occ. eigenvalues --   -0.49071  -0.48181  -0.48126  -0.45148  -0.44283
 Alpha  occ. eigenvalues --   -0.37395  -0.36383  -0.36165  -0.35105
 Alpha virt. eigenvalues --    0.04873   0.05928   0.11271   0.12497   0.16414
 Alpha virt. eigenvalues --    0.17544   0.21430   0.22502   0.27350   0.28173
 Alpha virt. eigenvalues --    0.28469   0.29360   0.30997   0.32022   0.32483

 Mulliken charges:
               1
     1  C   -0.164871
     2  C   -0.218415
     3  C   -0.174647
     4  C    0.155407
     5  C   -0.165719
     6  C   -0.198063
     7  H    0.225343
     8  H    0.219661
     9  H    0.270165
    10  H    0.269937
    11  H    0.223261
    12  N    0.487699
    13  O   -0.466040
    14  O   -0.464497
    15  C   -0.170115
    16  C   -0.217935
    17  C   -0.170204
    18  C    0.157783
    19  C   -0.171187
    20  C   -0.218549
    21  H    0.226805
    22  H    0.227036
    23  H    0.276821
    24  H    0.274119
    25  H    0.223424
    26  N    0.490255
    27  O   -0.463636
    28  O   -0.463838
 Sum of Mulliken charges =  -0.00000

 Dipole moment (field-independent basis, Debye):
    X=             -3.8445    Y=             -1.6709    Z=              0.4613  Tot=              4.2172
 Quadrupole moment (field-independent basis, Debye-Ang):
   XX=            -86.4718   YY=           -111.7311   ZZ=            -98.8326
   XY=            -22.9843   XZ=             -3.4826   YZ=             -3.5683

 Normal termination of Gaussian 16 at Wed May  5 21:16:13 2021.
