 Gaussian 16, Revision A.03,
 Gaussian 16:  EM64L-G16RevA.03 25-Dec-2016

 -------------
 #p 6-31g* mp2
 -------------

 ------------------------------------------------------
 Input file generated by CHIRIPA (05-May-2021 14:53:17)
 ------------------------------------------------------
 Symbolic Z-matrix:
 Charge =  0 Multiplicity = 1

                         Standard orientation:
 ---------------------------------------------------------------------
 Center     Atomic      Atomic             Coordinates (Angstroms)
 Number     Number       Type             X           Y           Z
 ---------------------------------------------------------------------
      1          6           0        2.316021    1.144894   -0.465338
      2          6           0        1.750605    2.369882    0.254171
      3          6           0        0.582269    3.009486   -0.496625
      4          1           0        2.641904    1.437354   -1.472916
      5          1           0        1.515157    0.404432   -0.598482
      6          1           0        2.552625    3.107240    0.387149
      7          1           0        1.426207    2.074512    1.260222
      8          1           0       -0.236853    2.293104   -0.616777
      9          1           0        0.895965    3.331700   -1.494810
     10          1           0        0.193415    3.883356    0.035356
     11          6           0        3.484602    0.494450    0.272950
     12          6           0        4.050018   -0.730538   -0.446559
     13          6           0        5.218354   -1.370142    0.304236
     14          1           0        4.285466    1.234912    0.406094
     15          1           0        3.158719    0.201990    1.280528
     16          1           0        4.374416   -0.435168   -1.452610
     17          1           0        3.247998   -1.467896   -0.579538
     18          1           0        4.904658   -1.692356    1.302422
     19          1           0        6.037477   -0.653760    0.424389
     20          1           0        5.607208   -2.244012   -0.227744
     21          6           0       -4.471852    0.584053    0.056368
     22          6           0       -3.710888    0.530592    1.228800
     23          6           0       -2.487110   -0.145005    1.250774
     24          6           0       -2.052602   -0.758742    0.076968
     25          6           0       -2.787937   -0.723161   -1.106800
     26          6           0       -4.008764   -0.041891   -1.105641
     27          1           0       -5.421366    1.111076    0.048284
     28          1           0       -4.068042    1.015791    2.132718
     29          1           0       -1.877851   -0.201997    2.144628
     30          1           0       -2.405715   -1.216486   -1.992211
     31          1           0       -4.597627   -0.002008   -2.017615
     32          7           0       -0.758605   -1.476969    0.087986
     33          8           0       -0.397918   -2.009519   -0.959360
     34          8           0       -0.129559   -1.493765    1.143758
 ---------------------------------------------------------------------

 SCF Done:  E(RHF) =  -669.536533606     A.U. after   15 cycles
 E2 =    -0.2092629547D+01 EUMP2 =    -0.67162916315247D+03

 The electronic state is 1-A.
 Alpha  occ. eigenvalues --  -20.61042 -20.61030 -15.86052 -11.31359 -11.27911
 Alpha  occ. eigenvalues --  -11.27904 -11.27627 -11.26894 -11.26884 -11.20996
 Alpha  occ. eigenvalues --  -11.20744 -11.20441 -11.20338 -11.20262 -11.20016
 Alpha  occ. eigenvalues --   -1.60099  -1.39650  -1.19513  -1.08922  -1.07479
 Alpha  occ. eigenvalues --   -1.04898  -1.02673  -0.95768  -0.95150  -0.86300
 Alpha  occ. eigenvalues --   -0.86179  -0.82600  -0.78749  -0.77661  -0.77247
 Alpha  occ. eigenvalues --   -0.72270  -0.71439  -0.70613  -0.65164  -0.64897
 Alpha  occ. eigenvalues --   -0.64073  -0.62244  -0.60062  -0.58557  -0.56749
 Alpha  occ. eigenvalues --   -0.55401  -0.54465  -0.53213  -0.52987  -0.51894
 Alpha  occ. eigenvalues --   -0.51580  -0.49103  -0.49045  -0.49032  -0.47072
 Alpha  occ. eigenvalues --   -0.45757  -0.45070  -0.44804  -0.44625  -0.42896
 Alpha  occ. eigenvalues --   -0.37480  -0.36491
 Alpha virt. eigenvalues --    0.04834   0.11157   0.16316   0.21276   0.23520
 Alpha virt. eigenvalues --    0.25031   0.27174   0.27309   0.28159   0.28355
 Alpha virt. eigenvalues --    0.28823   0.30963   0.31934   0.32310   0.32351

 Mulliken charges:
               1
     1  C   -0.300397
     2  C   -0.299911
     3  C   -0.475351
     4  H    0.145624
     5  H    0.158312
     6  H    0.149726
     7  H    0.151943
     8  H    0.150812
     9  H    0.154549
    10  H    0.155866
    11  C   -0.296829
    12  C   -0.303799
    13  C   -0.475521
    14  H    0.142914
    15  H    0.155784
    16  H    0.146258
    17  H    0.170327
    18  H    0.156779
    19  H    0.149879
    20  H    0.158120
    21  C   -0.170124
    22  C   -0.218176
    23  C   -0.170740
    24  C    0.158134
    25  C   -0.171061
    26  C   -0.218362
    27  H    0.226386
    28  H    0.224190
    29  H    0.275922
    30  H    0.276332
    31  H    0.224222
    32  N    0.486803
    33  O   -0.458934
    34  O   -0.459677
 Sum of Mulliken charges =  -0.00000

 Dipole moment (field-independent basis, Debye):
    X=             -4.7777    Y=              2.3120    Z=             -0.0062  Tot=              5.3077
 Quadrupole moment (field-independent basis, Debye-Ang):
   XX=            -77.4575   YY=            -99.5151   ZZ=            -90.0752
   XY=             -1.1767   XZ=             -0.1731   YZ=              1.5856

 Normal termination of Gaussian 16 at Thu May  6 02:48:47 2021.
