 Gaussian 16, Revision A.03,
 Gaussian 16:  EM64L-G16RevA.03 25-Dec-2016

 -------------
 #p 6-31g* mp2
 -------------

 ------------------------------------------------------
 Input file generated by CHIRIPA (05-May-2021 14:55:19)
 ------------------------------------------------------
 Symbolic Z-matrix:
 Charge =  0 Multiplicity = 1

                         Standard orientation:
 ---------------------------------------------------------------------
 Center     Atomic      Atomic             Coordinates (Angstroms)
 Number     Number       Type             X           Y           Z
 ---------------------------------------------------------------------
      1          6           0       -5.551068   -0.911704    0.069219
      2          6           0       -4.533698   -1.739256    0.555671
      3          6           0       -3.196860   -1.335763    0.487801
      4          6           0       -2.911984   -0.092794   -0.075371
      5          6           0       -3.903253    0.754186   -0.568626
      6          6           0       -5.233159    0.330186   -0.490390
      7          1           0       -6.586864   -1.233113    0.125968
      8          1           0       -4.777643   -2.704247    0.990791
      9          1           0       -2.389514   -1.956600    0.856816
     10          1           0       -3.629022    1.710637   -0.996898
     11          1           0       -6.021194    0.974952   -0.868970
     12          7           0       -1.500402    0.345221   -0.152709
     13          8           0       -1.275643    1.444921   -0.653488
     14          8           0       -0.645492   -0.419457    0.288917
     15          6           0        3.484935    0.565876    0.487367
     16          6           0        3.123519    1.947744   -0.058347
     17          6           0        2.041467    2.644773    0.766947
     18          1           0        2.581706   -0.059004    0.512840
     19          1           0        3.824242    0.667359    1.527543
     20          1           0        2.786308    1.843850   -1.097631
     21          1           0        4.027750    2.569345   -0.082704
     22          1           0        2.372218    2.777619    1.802107
     23          1           0        1.123723    2.048002    0.781413
     24          1           0        1.798477    3.630963    0.359217
     25          6           0        4.565315   -0.143516   -0.327046
     26          6           0        4.926732   -1.525384    0.218667
     27          6           0        6.008784   -2.222414   -0.606626
     28          1           0        4.226009   -0.245000   -1.367223
     29          1           0        5.468545    0.481363   -0.352520
     30          1           0        4.022501   -2.146985    0.243024
     31          1           0        5.263943   -1.421490    1.257952
     32          1           0        6.926529   -1.625642   -0.621092
     33          1           0        5.678033   -2.355260   -1.641786
     34          1           0        6.251774   -3.208604   -0.198895
 ---------------------------------------------------------------------

 SCF Done:  E(RHF) =  -669.537071915     A.U. after   15 cycles
 E2 =    -0.2091932045D+01 EUMP2 =    -0.67162900396005D+03

 The electronic state is 1-A.
 Alpha  occ. eigenvalues --  -20.61196 -20.61185 -15.86178 -11.31426 -11.27972
 Alpha  occ. eigenvalues --  -11.27968 -11.27696 -11.26958 -11.26949 -11.20602
 Alpha  occ. eigenvalues --  -11.20281 -11.20152 -11.19909 -11.19722 -11.19032
 Alpha  occ. eigenvalues --   -1.60223  -1.39779  -1.19580  -1.09000  -1.07045
 Alpha  occ. eigenvalues --   -1.04962  -1.02130  -0.95853  -0.94577  -0.86366
 Alpha  occ. eigenvalues --   -0.85601  -0.82689  -0.78266  -0.77756  -0.76793
 Alpha  occ. eigenvalues --   -0.72380  -0.71524  -0.70688  -0.65234  -0.64966
 Alpha  occ. eigenvalues --   -0.63670  -0.62308  -0.59520  -0.58030  -0.56188
 Alpha  occ. eigenvalues --   -0.55473  -0.53859  -0.53296  -0.53051  -0.51315
 Alpha  occ. eigenvalues --   -0.51018  -0.49287  -0.49162  -0.48365  -0.46546
 Alpha  occ. eigenvalues --   -0.45300  -0.45180  -0.44354  -0.44132  -0.42387
 Alpha  occ. eigenvalues --   -0.37553  -0.36557
 Alpha virt. eigenvalues --    0.04751   0.11100   0.16272   0.21237   0.24176
 Alpha virt. eigenvalues --    0.25802   0.27169   0.27928   0.28213   0.28866
 Alpha virt. eigenvalues --    0.29432   0.30823   0.32352   0.32792   0.32896

 Mulliken charges:
               1
     1  C   -0.170233
     2  C   -0.218642
     3  C   -0.170599
     4  C    0.159712
     5  C   -0.170432
     6  C   -0.218646
     7  H    0.226504
     8  H    0.224306
     9  H    0.276065
    10  H    0.276304
    11  H    0.224331
    12  N    0.488381
    13  O   -0.457103
    14  O   -0.460866
    15  C   -0.304955
    16  C   -0.295655
    17  C   -0.482926
    18  H    0.169134
    19  H    0.142655
    20  H    0.153686
    21  H    0.142458
    22  H    0.142933
    23  H    0.181605
    24  H    0.152802
    25  C   -0.297070
    26  C   -0.298865
    27  C   -0.474826
    28  H    0.148581
    29  H    0.145036
    30  H    0.153084
    31  H    0.149359
    32  H    0.153307
    33  H    0.153957
    34  H    0.156620
 Sum of Mulliken charges =  -0.00000

 Dipole moment (field-independent basis, Debye):
    X=             -5.5526    Y=             -1.6503    Z=              0.2094  Tot=              5.7964
 Quadrupole moment (field-independent basis, Debye-Ang):
   XX=            -67.6229   YY=            -91.9686   ZZ=            -94.7223
   XY=              4.1477   XZ=              0.9607   YZ=             -2.4496

 Normal termination of Gaussian 16 at Wed May  5 23:43:48 2021.
