 Gaussian 16, Revision A.03,
 Gaussian 16:  EM64L-G16RevA.03 25-Dec-2016

 -------------
 #p 6-31g* mp2
 -------------

 ------------------------------------------------------
 Input file generated by CHIRIPA (05-May-2021 14:51:12)
 ------------------------------------------------------
 Symbolic Z-matrix:
 Charge =  0 Multiplicity = 1

                         Standard orientation:
 ---------------------------------------------------------------------
 Center     Atomic      Atomic             Coordinates (Angstroms)
 Number     Number       Type             X           Y           Z
 ---------------------------------------------------------------------
      1          6           0        3.152746   -0.540913   -0.545466
      2          6           0        2.104661   -1.626592   -0.792050
      3          6           0        2.726067   -2.984433   -1.120557
      4          1           0        3.791388   -0.448030   -1.434542
      5          1           0        3.808225   -0.854295    0.278872
      6          1           0        1.450499   -1.310635   -1.614764
      7          1           0        1.468320   -1.716768    0.097643
      8          1           0        3.363659   -3.325331   -0.298447
      9          1           0        3.345737   -2.916891   -2.020584
     10          1           0        1.958990   -3.745791   -1.293146
     11          6           0        2.546986    0.822225   -0.215865
     12          6           0        3.595070    1.907905    0.030718
     13          6           0        2.973665    3.265746    0.359226
     14          1           0        1.891507    1.135608   -1.040204
     15          1           0        1.908344    0.729343    0.673210
     16          1           0        4.231412    1.998081   -0.858975
     17          1           0        4.249233    1.591948    0.853432
     18          1           0        2.353995    3.198204    1.259252
     19          1           0        2.336073    3.606644   -0.462884
     20          1           0        3.740742    4.027104    0.531814
     21          6           0       -2.591091   -0.417343    1.043925
     22          6           0       -1.092700   -0.721696    1.030659
     23          6           0       -0.589933   -1.274523    2.364601
     24          1           0       -2.805362    0.303102    1.845168
     25          1           0       -3.142310   -1.334733    1.292822
     26          1           0       -0.544549    0.195675    0.780502
     27          1           0       -0.881942   -1.441355    0.229229
     28          1           0       -1.110714   -2.203779    2.617336
     29          1           0       -0.771404   -0.557447    3.171740
     30          1           0        0.483617   -1.485099    2.332874
     31          6           0       -3.108641    0.136030   -0.282593
     32          6           0       -4.607033    0.440383   -0.269327
     33          6           0       -5.109798    0.993210   -1.603270
     34          1           0       -2.557423    1.053420   -0.531490
     35          1           0       -2.894369   -0.584415   -1.083836
     36          1           0       -4.817790    1.160041    0.532101
     37          1           0       -5.155183   -0.476988   -0.019170
     38          1           0       -4.928328    0.276135   -2.410408
     39          1           0       -4.589019    1.922465   -1.856004
     40          1           0       -6.183350    1.203785   -1.571542
 ---------------------------------------------------------------------

 SCF Done:  E(RHF) =  -470.731785545     A.U. after   11 cycles
 E2 =    -0.1584709410D+01 EUMP2 =    -0.47231649495549D+03

 The electronic state is 1-A.
 Alpha  occ. eigenvalues --  -11.21600 -11.21590 -11.21511 -11.21482 -11.21381
 Alpha  occ. eigenvalues --  -11.21380 -11.21321 -11.21319 -11.21124 -11.21089
 Alpha  occ. eigenvalues --  -11.21065 -11.21036  -1.08469  -1.08360  -1.03583
 Alpha  occ. eigenvalues --   -1.03463  -0.95994  -0.95967  -0.87004  -0.86981
 Alpha  occ. eigenvalues --   -0.79735  -0.79498  -0.78452  -0.77968  -0.65082
 Alpha  occ. eigenvalues --   -0.65041  -0.61068  -0.60840  -0.59503  -0.59192
 Alpha  occ. eigenvalues --   -0.57621  -0.57560  -0.55332  -0.55198  -0.52719
 Alpha  occ. eigenvalues --   -0.52632  -0.52444  -0.52374  -0.49958  -0.49878
 Alpha  occ. eigenvalues --   -0.48077  -0.47846  -0.46736  -0.46428  -0.46109
 Alpha  occ. eigenvalues --   -0.45697  -0.45619  -0.45259  -0.43789  -0.43749
 Alpha virt. eigenvalues --    0.21185   0.23139   0.23825   0.24314   0.25949
 Alpha virt. eigenvalues --    0.26224   0.26684   0.27830   0.28168   0.29651
 Alpha virt. eigenvalues --    0.30528   0.30923   0.31628   0.31803   0.32182

 Mulliken charges:
               1
     1  C   -0.297616
     2  C   -0.309512
     3  C   -0.475038
     4  H    0.149369
     5  H    0.148623
     6  H    0.151354
     7  H    0.165180
     8  H    0.154653
     9  H    0.154892
    10  H    0.159477
    11  C   -0.303030
    12  C   -0.299180
    13  C   -0.475776
    14  H    0.149433
    15  H    0.154480
    16  H    0.152032
    17  H    0.151848
    18  H    0.154735
    19  H    0.154993
    20  H    0.160415
    21  C   -0.297375
    22  C   -0.307199
    23  C   -0.480246
    24  H    0.149115
    25  H    0.149083
    26  H    0.157535
    27  H    0.155518
    28  H    0.155853
    29  H    0.155611
    30  H    0.160979
    31  C   -0.298270
    32  C   -0.299621
    33  C   -0.475693
    34  H    0.149613
    35  H    0.149499
    36  H    0.151944
    37  H    0.151873
    38  H    0.155082
    39  H    0.155139
    40  H    0.160226
 Sum of Mulliken charges =  -0.00000

 Dipole moment (field-independent basis, Debye):
    X=             -0.0128    Y=              0.0042    Z=              0.0032  Tot=              0.0138
 Quadrupole moment (field-independent basis, Debye-Ang):
   XX=            -85.3101   YY=            -85.1441   ZZ=            -84.6173
   XY=              0.7603   XZ=             -0.2582   YZ=              0.1559

 Normal termination of Gaussian 16 at Thu May  6 07:04:03 2021.
