 Gaussian 16, Revision A.03,
 Gaussian 16:  EM64L-G16RevA.03 25-Dec-2016

 -------------
 #p 6-31g* mp2
 -------------

 ------------------------------------------------------
 Input file generated by CHIRIPA (05-May-2021 14:53:16)
 ------------------------------------------------------
 Symbolic Z-matrix:
 Charge =  0 Multiplicity = 1

                         Standard orientation:
 ---------------------------------------------------------------------
 Center     Atomic      Atomic             Coordinates (Angstroms)
 Number     Number       Type             X           Y           Z
 ---------------------------------------------------------------------
      1          6           0        3.067667   -0.733124    0.889813
      2          6           0        1.860175   -1.627500    0.606900
      3          6           0        1.162355   -2.099624    1.882807
      4          1           0        3.782363   -1.281045    1.519048
      5          1           0        2.740883    0.138255    1.474026
      6          1           0        2.188899   -2.496231    0.022209
      7          1           0        1.148358   -1.077453   -0.021893
      8          1           0        0.806886   -1.244336    2.466524
      9          1           0        1.853338   -2.671175    2.510878
     10          1           0        0.302084   -2.737560    1.657348
     11          6           0        3.775806   -0.253113   -0.375832
     12          6           0        4.983298    0.641263   -0.092920
     13          6           0        5.681119    1.113388   -1.368827
     14          1           0        4.102591   -1.124492   -0.960046
     15          1           0        3.061110    0.294809   -1.005067
     16          1           0        5.695115    0.091217    0.535874
     17          1           0        4.654575    1.509995    0.491771
     18          1           0        4.990135    1.684939   -1.996897
     19          1           0        6.036588    0.258100   -1.952544
     20          1           0        6.541389    1.751324   -1.143367
     21          6           0       -1.709271    2.555343    0.652101
     22          6           0       -3.049752    2.240335    0.897871
     23          6           0       -3.594501    1.040763    0.430086
     24          6           0       -2.766424    0.175452   -0.283226
     25          6           0       -1.427155    0.460952   -0.544256
     26          6           0       -0.903671    1.666213   -0.066910
     27          1           0       -1.294357    3.489409    1.019202
     28          1           0       -3.677745    2.928944    1.455983
     29          1           0       -4.628978    0.771880    0.606093
     30          1           0       -0.825931   -0.245516   -1.103587
     31          1           0        0.137708    1.908230   -0.259273
     32          7           0       -3.331869   -1.097492   -0.783510
     33          8           0       -2.581402   -1.842924   -1.409425
     34          8           0       -4.514825   -1.325692   -0.540244
 ---------------------------------------------------------------------

 SCF Done:  E(RHF) =  -669.535275996     A.U. after   15 cycles
 E2 =    -0.2092157315D+01 EUMP2 =    -0.67162743331118D+03

 The electronic state is 1-A.
 Alpha  occ. eigenvalues --  -20.60783 -20.60778 -15.85836 -11.31212 -11.27790
 Alpha  occ. eigenvalues --  -11.27778 -11.27539 -11.26816 -11.26803 -11.22075
 Alpha  occ. eigenvalues --  -11.21950 -11.21909 -11.21807 -11.21483 -11.21192
 Alpha  occ. eigenvalues --   -1.59858  -1.39410  -1.19394  -1.08876  -1.08785
 Alpha  occ. eigenvalues --   -1.04806  -1.03894  -0.96331  -0.95618  -0.87344
 Alpha  occ. eigenvalues --   -0.86198  -0.82453  -0.79972  -0.78701  -0.77491
 Alpha  occ. eigenvalues --   -0.72055  -0.71181  -0.70513  -0.65545  -0.65042
 Alpha  occ. eigenvalues --   -0.64810  -0.62208  -0.61251  -0.59690  -0.57934
 Alpha  occ. eigenvalues --   -0.55636  -0.55301  -0.53121  -0.52989  -0.52903
 Alpha  occ. eigenvalues --   -0.52739  -0.50281  -0.48815  -0.48810  -0.48266
 Alpha  occ. eigenvalues --   -0.47017  -0.46233  -0.46162  -0.44813  -0.44164
 Alpha  occ. eigenvalues --   -0.37374  -0.36382
 Alpha virt. eigenvalues --    0.05006   0.11216   0.16430   0.19369   0.22776
 Alpha virt. eigenvalues --    0.23952   0.25070   0.26480   0.27151   0.28232
 Alpha virt. eigenvalues --    0.29213   0.31035   0.31323   0.31523   0.32141

 Mulliken charges:
               1
     1  C   -0.298842
     2  C   -0.300641
     3  C   -0.477291
     4  H    0.152830
     5  H    0.145378
     6  H    0.157196
     7  H    0.143739
     8  H    0.153580
     9  H    0.156019
    10  H    0.168196
    11  C   -0.297491
    12  C   -0.299534
    13  C   -0.475697
    14  H    0.153760
    15  H    0.141361
    16  H    0.154428
    17  H    0.149073
    18  H    0.153480
    19  H    0.157453
    20  H    0.161383
    21  C   -0.170939
    22  C   -0.218412
    23  C   -0.170846
    24  C    0.158578
    25  C   -0.172290
    26  C   -0.219863
    27  H    0.225740
    28  H    0.223630
    29  H    0.275784
    30  H    0.278673
    31  H    0.224227
    32  N    0.487925
    33  O   -0.460239
    34  O   -0.460352
 Sum of Mulliken charges =  -0.00000

 Dipole moment (field-independent basis, Debye):
    X=              2.0309    Y=              4.3725    Z=              1.8052  Tot=              5.1480
 Quadrupole moment (field-independent basis, Debye-Ang):
   XX=           -101.5179   YY=            -92.7075   ZZ=            -96.3768
   XY=            -14.4242   XZ=             -7.0534   YZ=             -0.0973

 Normal termination of Gaussian 16 at Thu May  6 10:38:54 2021.
