 Gaussian 16, Revision A.03,
 Gaussian 16:  EM64L-G16RevA.03 25-Dec-2016

 -------------
 #p 6-31g* mp2
 -------------

 ------------------------------------------------------
 Input file generated by CHIRIPA (05-May-2021 14:57:23)
 ------------------------------------------------------
 Symbolic Z-matrix:
 Charge =  0 Multiplicity = 1

                         Standard orientation:
 ---------------------------------------------------------------------
 Center     Atomic      Atomic             Coordinates (Angstroms)
 Number     Number       Type             X           Y           Z
 ---------------------------------------------------------------------
      1          6           0        5.523753    1.184775   -0.661990
      2          6           0        5.312311   -0.111564   -1.142947
      3          6           0        4.204429   -0.853145   -0.721993
      4          6           0        3.324205   -0.264772    0.184822
      5          6           0        3.507586    1.024538    0.682155
      6          6           0        4.622305    1.747696    0.247423
      7          1           0        6.387038    1.753697   -0.994349
      8          1           0        6.010730   -0.551281   -1.849278
      9          1           0        4.016662   -1.858724   -1.078325
     10          1           0        2.793911    1.436049    1.385536
     11          1           0        4.783990    2.754240    0.622619
     12          7           0        2.147720   -1.040099    0.637761
     13          8           0        1.386979   -0.499098    1.437277
     14          8           0        2.008611   -2.174120    0.184681
     15          6           0       -3.346435   -2.380070   -0.139585
     16          6           0       -4.580824   -1.760015   -0.359443
     17          6           0       -4.687702   -0.366126   -0.345406
     18          6           0       -3.534700    0.380329   -0.107329
     19          6           0       -2.290661   -0.208025    0.115151
     20          6           0       -2.207302   -1.603466    0.096594
     21          1           0       -3.272546   -3.463479   -0.152245
     22          1           0       -5.467160   -2.360612   -0.543119
     23          1           0       -5.630805    0.139863   -0.512587
     24          1           0       -1.424713    0.417282    0.295552
     25          1           0       -1.247348   -2.082288    0.267657
     26          7           0       -3.635398    1.856798   -0.090076
     27          8           0       -2.604744    2.491967    0.121947
     28          8           0       -4.743070    2.350930   -0.288901
 ---------------------------------------------------------------------

 SCF Done:  E(RHF) =  -868.342017877     A.U. after   16 cycles
 E2 =    -0.2598827344D+01 EUMP2 =    -0.87094084522106D+03

 The electronic state is 1-A.
 Alpha  occ. eigenvalues --  -20.61831 -20.61812 -20.59960 -20.59955 -15.86788
 Alpha  occ. eigenvalues --  -15.84999 -11.31716 -11.30087 -11.28251 -11.28200
 Alpha  occ. eigenvalues --  -11.27904 -11.27165 -11.27120 -11.26691 -11.26447
 Alpha  occ. eigenvalues --  -11.26300 -11.25694 -11.25312  -1.60861  -1.59039
 Alpha  occ. eigenvalues --   -1.40420  -1.38600  -1.19849  -1.18220  -1.09331
 Alpha  occ. eigenvalues --   -1.07678  -1.05180  -1.03541  -0.96234  -0.94559
 Alpha  occ. eigenvalues --   -0.86601  -0.84965  -0.83082  -0.81374  -0.78172
 Alpha  occ. eigenvalues --   -0.76449  -0.73012  -0.72139  -0.71229  -0.70952
 Alpha  occ. eigenvalues --   -0.70357  -0.69339  -0.65504  -0.65181  -0.63856
 Alpha  occ. eigenvalues --   -0.63503  -0.62528  -0.60860  -0.55708  -0.54099
 Alpha  occ. eigenvalues --   -0.53534  -0.53265  -0.51946  -0.51601  -0.49794
 Alpha  occ. eigenvalues --   -0.49742  -0.47993  -0.47954  -0.45906  -0.44066
 Alpha  occ. eigenvalues --   -0.37807  -0.36759  -0.36230  -0.35145
 Alpha virt. eigenvalues --    0.04276   0.06015   0.10901   0.12490   0.15847
 Alpha virt. eigenvalues --    0.17578   0.21060   0.22780   0.27030   0.27817
 Alpha virt. eigenvalues --    0.28892   0.29419   0.30783   0.32073   0.32354

 Mulliken charges:
               1
     1  C   -0.169093
     2  C   -0.218703
     3  C   -0.170211
     4  C    0.157528
     5  C   -0.169413
     6  C   -0.218441
     7  H    0.228190
     8  H    0.224999
     9  H    0.275002
    10  H    0.278979
    11  H    0.227272
    12  N    0.488901
    13  O   -0.463772
    14  O   -0.463811
    15  C   -0.172591
    16  C   -0.219070
    17  C   -0.173585
    18  C    0.157833
    19  C   -0.175133
    20  C   -0.226639
    21  H    0.223713
    22  H    0.218730
    23  H    0.271071
    24  H    0.281095
    25  H    0.246564
    26  N    0.488194
    27  O   -0.463192
    28  O   -0.464417
 Sum of Mulliken charges =  -0.00000

 Dipole moment (field-independent basis, Debye):
    X=              5.1818    Y=             -2.4676    Z=             -1.5953  Tot=              5.9570
 Quadrupole moment (field-independent basis, Debye-Ang):
   XX=            -75.6154   YY=           -108.2186   ZZ=           -104.9555
   XY=             26.5064   XZ=             -4.7014   YZ=              4.1004

 Normal termination of Gaussian 16 at Fri May  7 07:58:26 2021.
