 Gaussian 16, Revision A.03,
 Gaussian 16:  EM64L-G16RevA.03 25-Dec-2016

 -------------
 #p 6-31g* mp2
 -------------

 ------------------------------------------------------
 Input file generated by CHIRIPA (05-May-2021 14:53:12)
 ------------------------------------------------------
 Symbolic Z-matrix:
 Charge =  0 Multiplicity = 1

                         Standard orientation:
 ---------------------------------------------------------------------
 Center     Atomic      Atomic             Coordinates (Angstroms)
 Number     Number       Type             X           Y           Z
 ---------------------------------------------------------------------
      1          6           0       -4.295168   -0.542898    0.564799
      2          6           0       -2.811945   -0.189402    0.679148
      3          6           0       -2.001011   -1.267664    1.398544
      4          1           0       -4.706148   -0.702588    1.571049
      5          1           0       -4.397284   -1.497527    0.030336
      6          1           0       -2.712729    0.764965    1.212023
      7          1           0       -2.404495   -0.030347   -0.327481
      8          1           0       -2.070281   -2.221536    0.865694
      9          1           0       -2.380267   -1.421706    2.413944
     10          1           0       -0.943529   -0.994522    1.469164
     11          6           0       -5.119030    0.525353   -0.152014
     12          6           0       -6.602253    0.171858   -0.266363
     13          6           0       -7.413188    1.250119   -0.985759
     14          1           0       -5.016914    1.479982    0.382449
     15          1           0       -4.708051    0.685044   -1.158264
     16          1           0       -7.009704    0.012803    0.740266
     17          1           0       -6.701469   -0.782510   -0.799237
     18          1           0       -7.033932    1.404161   -2.001159
     19          1           0       -7.343918    2.203992   -0.452908
     20          1           0       -8.470669    0.976978   -1.056379
     21          6           0        5.401530    1.808242    0.223942
     22          6           0        4.041262    2.097715    0.373595
     23          6           0        3.077219    1.107413    0.162711
     24          6           0        3.510741   -0.167299   -0.198483
     25          6           0        4.858565   -0.486725   -0.355410
     26          6           0        5.805129    0.519219   -0.139442
     27          1           0        6.143633    2.583608    0.389736
     28          1           0        3.724917    3.097902    0.655725
     29          1           0        2.017576    1.304143    0.271663
     30          1           0        5.143306   -1.493091   -0.637485
     31          1           0        6.860843    0.291542   -0.256389
     32          7           0        2.499404   -1.223966   -0.424427
     33          8           0        2.907178   -2.339110   -0.741935
     34          8           0        1.318095   -0.917030   -0.279736
 ---------------------------------------------------------------------

 SCF Done:  E(RHF) =  -669.535950017     A.U. after   15 cycles
 E2 =    -0.2090722796D+01 EUMP2 =    -0.67162667281321D+03

 The electronic state is 1-A.
 Alpha  occ. eigenvalues --  -20.60912 -20.60900 -15.85947 -11.31277 -11.27843
 Alpha  occ. eigenvalues --  -11.27839 -11.27582 -11.26852 -11.26843 -11.21129
 Alpha  occ. eigenvalues --  -11.20803 -11.20698 -11.20633 -11.20574 -11.19693
 Alpha  occ. eigenvalues --   -1.59973  -1.39529  -1.19447  -1.08850  -1.07726
 Alpha  occ. eigenvalues --   -1.04845  -1.02748  -0.95693  -0.95179  -0.86248
 Alpha  occ. eigenvalues --   -0.86198  -0.82524  -0.78848  -0.77576  -0.77522
 Alpha  occ. eigenvalues --   -0.72175  -0.71289  -0.70557  -0.65104  -0.64848
 Alpha  occ. eigenvalues --   -0.64363  -0.62193  -0.60149  -0.58585  -0.56772
 Alpha  occ. eigenvalues --   -0.55349  -0.54481  -0.53177  -0.52937  -0.51837
 Alpha  occ. eigenvalues --   -0.51613  -0.49160  -0.48925  -0.48902  -0.47149
 Alpha  occ. eigenvalues --   -0.45903  -0.45070  -0.44987  -0.44918  -0.42978
 Alpha  occ. eigenvalues --   -0.37427  -0.36447
 Alpha virt. eigenvalues --    0.04932   0.11207   0.16408   0.21289   0.23515
 Alpha virt. eigenvalues --    0.25046   0.27207   0.27309   0.27880   0.28257
 Alpha virt. eigenvalues --    0.28988   0.30813   0.32048   0.32172   0.32450

 Mulliken charges:
               1
     1  C   -0.297640
     2  C   -0.299723
     3  C   -0.477648
     4  H    0.147042
     5  H    0.150259
     6  H    0.143938
     7  H    0.156656
     8  H    0.158014
     9  H    0.145201
    10  H    0.176243
    11  C   -0.297560
    12  C   -0.299110
    13  C   -0.475279
    14  H    0.146776
    15  H    0.149358
    16  H    0.150923
    17  H    0.152141
    18  H    0.154726
    19  H    0.153766
    20  H    0.158931
    21  C   -0.170653
    22  C   -0.218521
    23  C   -0.170863
    24  C    0.157900
    25  C   -0.170782
    26  C   -0.218553
    27  H    0.225940
    28  H    0.223849
    29  H    0.275722
    30  H    0.275832
    31  H    0.223760
    32  N    0.491536
    33  O   -0.459021
    34  O   -0.463159
 Sum of Mulliken charges =  -0.00000

 Dipole moment (field-independent basis, Debye):
    X=              3.8633    Y=              3.6593    Z=              0.7282  Tot=              5.3708
 Quadrupole moment (field-independent basis, Debye-Ang):
   XX=            -68.8104   YY=            -94.4830   ZZ=            -95.4107
   XY=             10.5630   XZ=              0.9501   YZ=              0.8119

 Normal termination of Gaussian 16 at Thu May  6 08:52:09 2021.
