 Gaussian 16, Revision A.03,
 Gaussian 16:  EM64L-G16RevA.03 25-Dec-2016

 -------------
 #p 6-31g* mp2
 -------------

 ------------------------------------------------------
 Input file generated by CHIRIPA (05-May-2021 14:51:08)
 ------------------------------------------------------
 Symbolic Z-matrix:
 Charge =  0 Multiplicity = 1

                         Standard orientation:
 ---------------------------------------------------------------------
 Center     Atomic      Atomic             Coordinates (Angstroms)
 Number     Number       Type             X           Y           Z
 ---------------------------------------------------------------------
      1          6           0        5.561522    0.137553    0.060424
      2          6           0        6.534423   -1.013131   -0.199146
      3          6           0        7.992235   -0.554794   -0.249206
      4          1           0        5.682235    0.895700   -0.725443
      5          1           0        5.826228    0.625449    1.008729
      6          1           0        6.267110   -1.499585   -1.145995
      7          1           0        6.411246   -1.768717    0.587324
      8          1           0        8.282065   -0.088088    0.697782
      9          1           0        8.137110    0.182573   -1.045385
     10          1           0        8.670502   -1.393244   -0.435794
     11          6           0        4.100278   -0.304829    0.113246
     12          6           0        3.127377    0.845855    0.372816
     13          6           0        1.669565    0.387518    0.422876
     14          1           0        3.835572   -0.792725   -0.835059
     15          1           0        3.979565   -1.062976    0.899113
     16          1           0        3.250554    1.601440   -0.413654
     17          1           0        3.394690    1.332308    1.319665
     18          1           0        1.524690   -0.349849    1.219055
     19          1           0        1.379735   -0.079188   -0.524112
     20          1           0        0.991298    1.225968    0.609464
     21          6           0       -5.590575    0.155368   -0.052477
     22          6           0       -6.322478   -1.183869    0.041045
     23          6           0       -7.841548   -1.023874    0.109039
     24          1           0       -5.857131    0.773092    0.816034
     25          1           0       -5.943319    0.696791   -0.941199
     26          1           0       -5.967453   -1.723205    0.928565
     27          1           0       -6.054000   -1.798551   -0.827691
     28          1           0       -8.214836   -0.508071   -0.781581
     29          1           0       -8.127798   -0.432299    0.984653
     30          1           0       -8.344788   -1.993513    0.175436
     31          6           0       -4.071224    0.011908   -0.121194
     32          6           0       -3.339322    1.351145   -0.214715
     33          6           0       -1.820252    1.191150   -0.282709
     34          1           0       -3.718481   -0.529514    0.767530
     35          1           0       -3.804669   -0.605815   -0.989705
     36          1           0       -3.607800    1.965827    0.654022
     37          1           0       -3.694346    1.890481   -1.102234
     38          1           0       -1.534002    0.599575   -1.158322
     39          1           0       -1.446964    0.675348    0.607912
     40          1           0       -1.317012    2.160790   -0.349106
 ---------------------------------------------------------------------

 SCF Done:  E(RHF) =  -470.732606787     A.U. after   11 cycles
 E2 =    -0.1582550735D+01 EUMP2 =    -0.47231515752225D+03

 The electronic state is 1-A.
 Alpha  occ. eigenvalues --  -11.21581 -11.21568 -11.21535 -11.21504 -11.21374
 Alpha  occ. eigenvalues --  -11.21351 -11.21314 -11.21289 -11.21056 -11.21046
 Alpha  occ. eigenvalues --  -11.20980 -11.20890  -1.08398  -1.08368  -1.03518
 Alpha  occ. eigenvalues --   -1.03437  -0.96025  -0.95833  -0.87115  -0.86782
 Alpha  occ. eigenvalues --   -0.79683  -0.79405  -0.78221  -0.78170  -0.65029
 Alpha  occ. eigenvalues --   -0.65001  -0.60914  -0.60848  -0.59451  -0.59171
 Alpha  occ. eigenvalues --   -0.57571  -0.57507  -0.55275  -0.55163  -0.53005
 Alpha  occ. eigenvalues --   -0.52530  -0.52276  -0.52126  -0.49923  -0.49793
 Alpha  occ. eigenvalues --   -0.47902  -0.47804  -0.46618  -0.46530  -0.45776
 Alpha  occ. eigenvalues --   -0.45705  -0.45677  -0.45646  -0.43893  -0.43510
 Alpha virt. eigenvalues --    0.22589   0.22988   0.23661   0.24796   0.26477
 Alpha virt. eigenvalues --    0.26633   0.26851   0.27425   0.27655   0.29209
 Alpha virt. eigenvalues --    0.30101   0.30826   0.31310   0.31990   0.32235

 Mulliken charges:
               1
     1  C   -0.298156
     2  C   -0.299545
     3  C   -0.475654
     4  H    0.149494
     5  H    0.149358
     6  H    0.151827
     7  H    0.151836
     8  H    0.155112
     9  H    0.155112
    10  H    0.160120
    11  C   -0.298384
    12  C   -0.300371
    13  C   -0.477591
    14  H    0.149270
    15  H    0.149352
    16  H    0.151458
    17  H    0.151170
    18  H    0.153106
    19  H    0.155553
    20  H    0.166656
    21  C   -0.298204
    22  C   -0.299594
    23  C   -0.475679
    24  H    0.149554
    25  H    0.149441
    26  H    0.151894
    27  H    0.151885
    28  H    0.155137
    29  H    0.155137
    30  H    0.160181
    31  C   -0.298365
    32  C   -0.300920
    33  C   -0.475223
    34  H    0.149589
    35  H    0.149486
    36  H    0.151450
    37  H    0.151337
    38  H    0.155410
    39  H    0.158872
    40  H    0.158891
 Sum of Mulliken charges =  -0.00000

 Dipole moment (field-independent basis, Debye):
    X=             -0.0215    Y=              0.0036    Z=              0.0012  Tot=              0.0219
 Quadrupole moment (field-independent basis, Debye-Ang):
   XX=            -87.6245   YY=            -84.8498   ZZ=            -82.7032
   XY=             -0.2175   XZ=              0.2400   YZ=             -0.0879

 Normal termination of Gaussian 16 at Thu May  6 13:12:30 2021.
