 Gaussian 16, Revision A.03,
 Gaussian 16:  EM64L-G16RevA.03 25-Dec-2016

 -------------
 #p 6-31g* mp2
 -------------

 ------------------------------------------------------
 Input file generated by CHIRIPA (05-May-2021 14:51:13)
 ------------------------------------------------------
 Symbolic Z-matrix:
 Charge =  0 Multiplicity = 1

                         Standard orientation:
 ---------------------------------------------------------------------
 Center     Atomic      Atomic             Coordinates (Angstroms)
 Number     Number       Type             X           Y           Z
 ---------------------------------------------------------------------
      1          6           0       -3.102009   -0.372633   -0.329767
      2          6           0       -3.498964   -1.805862    0.025571
      3          6           0       -2.484081   -2.839126   -0.464505
      4          1           0       -2.989128   -0.289630   -1.419406
      5          1           0       -2.116381   -0.154274    0.104114
      6          1           0       -4.484167   -2.020991   -0.407685
      7          1           0       -3.611099   -1.885414    1.114475
      8          1           0       -1.500134   -2.652521   -0.022207
      9          1           0       -2.378162   -2.788869   -1.553016
     10          1           0       -2.787550   -3.856818   -0.199800
     11          6           0       -4.106717    0.671762    0.153482
     12          6           0       -3.709763    2.104991   -0.201856
     13          6           0       -4.724645    3.138255    0.288220
     14          1           0       -5.092345    0.453403   -0.280399
     15          1           0       -4.219598    0.588759    1.243121
     16          1           0       -3.597627    2.184543   -1.290760
     17          1           0       -2.724560    2.320120    0.231400
     18          1           0       -4.830564    3.087998    1.376731
     19          1           0       -5.708592    2.951650   -0.154078
     20          1           0       -4.421177    4.155947    0.023515
     21          6           0        3.047323   -0.492830    0.482234
     22          6           0        2.545210   -1.779786   -0.173215
     23          6           0        1.430930   -2.454944    0.626993
     24          1           0        3.407562   -0.720932    1.494727
     25          1           0        2.205316    0.203350    0.599501
     26          1           0        3.388185   -2.472793   -0.290473
     27          1           0        2.186302   -1.548626   -1.184336
     28          1           0        0.571943   -1.784442    0.732669
     29          1           0        1.780655   -2.713859    1.631611
     30          1           0        1.086886   -3.372968    0.140447
     31          6           0        4.161404    0.193701   -0.305948
     32          6           0        4.663516    1.480657    0.349500
     33          6           0        5.777796    2.155816   -0.450708
     34          1           0        5.003411   -0.502479   -0.423216
     35          1           0        3.801164    0.421803   -1.318441
     36          1           0        5.022424    1.249498    1.360621
     37          1           0        3.820541    2.173664    0.466758
     38          1           0        5.428071    2.414731   -1.455325
     39          1           0        6.636784    1.485312   -0.556384
     40          1           0        6.121840    3.073838    0.035839
 ---------------------------------------------------------------------

 SCF Done:  E(RHF) =  -470.732933351     A.U. after   11 cycles
 E2 =    -0.1582717882D+01 EUMP2 =    -0.47231565123234D+03

 The electronic state is 1-A.
 Alpha  occ. eigenvalues --  -11.21625 -11.21615 -11.21611 -11.21550 -11.21426
 Alpha  occ. eigenvalues --  -11.21406 -11.21366 -11.21347 -11.21111 -11.21080
 Alpha  occ. eigenvalues --  -11.21077 -11.20910  -1.08453  -1.08416  -1.03566
 Alpha  occ. eigenvalues --   -1.03489  -0.96039  -0.95919  -0.87082  -0.86915
 Alpha  occ. eigenvalues --   -0.79673  -0.79516  -0.78273  -0.78223  -0.65118
 Alpha  occ. eigenvalues --   -0.65020  -0.61075  -0.60803  -0.59380  -0.59317
 Alpha  occ. eigenvalues --   -0.57615  -0.57566  -0.55478  -0.55087  -0.52781
 Alpha  occ. eigenvalues --   -0.52627  -0.52436  -0.52303  -0.50133  -0.49709
 Alpha  occ. eigenvalues --   -0.47964  -0.47847  -0.46773  -0.46461  -0.45845
 Alpha  occ. eigenvalues --   -0.45770  -0.45741  -0.45587  -0.43796  -0.43756
 Alpha virt. eigenvalues --    0.21428   0.23095   0.23603   0.24835   0.25956
 Alpha virt. eigenvalues --    0.26846   0.27136   0.27316   0.27918   0.29083
 Alpha virt. eigenvalues --    0.30614   0.31207   0.31685   0.31827   0.32036

 Mulliken charges:
               1
     1  C   -0.298939
     2  C   -0.299198
     3  C   -0.484512
     4  H    0.149615
     5  H    0.148680
     6  H    0.151568
     7  H    0.151677
     8  H    0.166261
     9  H    0.153968
    10  H    0.159448
    11  C   -0.298254
    12  C   -0.299597
    13  C   -0.475699
    14  H    0.149756
    15  H    0.149753
    16  H    0.151859
    17  H    0.151561
    18  H    0.155249
    19  H    0.155255
    20  H    0.160196
    21  C   -0.298676
    22  C   -0.299630
    23  C   -0.480361
    24  H    0.149640
    25  H    0.149452
    26  H    0.152181
    27  H    0.152779
    28  H    0.157127
    29  H    0.155499
    30  H    0.163025
    31  C   -0.298352
    32  C   -0.299672
    33  C   -0.475725
    34  H    0.149615
    35  H    0.149862
    36  H    0.151916
    37  H    0.151919
    38  H    0.155256
    39  H    0.155210
    40  H    0.160285
 Sum of Mulliken charges =  -0.00000

 Dipole moment (field-independent basis, Debye):
    X=              0.0472    Y=             -0.0120    Z=              0.0061  Tot=              0.0491
 Quadrupole moment (field-independent basis, Debye-Ang):
   XX=            -85.1817   YY=            -85.6026   ZZ=            -84.0304
   XY=             -0.3975   XZ=              1.3473   YZ=             -0.2188

 Normal termination of Gaussian 16 at Thu May  6 05:34:43 2021.
