 Gaussian 16, Revision A.03,
 Gaussian 16:  EM64L-G16RevA.03 25-Dec-2016

 -------------
 #p 6-31g* mp2
 -------------

 ------------------------------------------------------
 Input file generated by CHIRIPA (05-May-2021 14:51:09)
 ------------------------------------------------------
 Symbolic Z-matrix:
 Charge =  0 Multiplicity = 1

                         Standard orientation:
 ---------------------------------------------------------------------
 Center     Atomic      Atomic             Coordinates (Angstroms)
 Number     Number       Type             X           Y           Z
 ---------------------------------------------------------------------
      1          6           0        1.865594   -1.365015    0.529097
      2          6           0        0.983557   -2.377825   -0.201802
      3          6           0        0.192729   -3.271439    0.754147
      4          1           0        2.559684   -1.902289    1.189794
      5          1           0        1.235347   -0.741632    1.178387
      6          1           0        1.615104   -2.998202   -0.850567
      7          1           0        0.291615   -1.838086   -0.860980
      8          1           0       -0.460878   -2.668732    1.393007
      9          1           0        0.870130   -3.835440    1.403479
     10          1           0       -0.431006   -3.987890    0.210536
     11          6           0        2.662427   -0.464426   -0.413093
     12          6           0        3.544464    0.548383    0.317806
     13          6           0        4.335292    1.441998   -0.638143
     14          1           0        3.292674   -1.087809   -1.062384
     15          1           0        1.968337    0.072848   -1.073791
     16          1           0        4.236406    0.008645    0.976983
     17          1           0        2.912917    1.168761    0.966571
     18          1           0        3.657891    2.005999   -1.287475
     19          1           0        4.988899    0.839291   -1.277003
     20          1           0        4.959027    2.158449   -0.094532
     21          6           0       -2.579335    0.273414    0.211680
     22          6           0       -2.828847   -0.780145   -0.868016
     23          6           0       -3.460019   -2.057398   -0.313001
     24          1           0       -1.927655   -0.152403    0.986881
     25          1           0       -3.531391    0.517376    0.703072
     26          1           0       -1.876826   -1.021033   -1.358162
     27          1           0       -3.479853   -0.351708   -1.640834
     28          1           0       -4.423109   -1.837559    0.158941
     29          1           0       -2.810973   -2.510688    0.443219
     30          1           0       -3.629696   -2.796902   -1.101800
     31          6           0       -1.948686    1.556027   -0.327684
     32          6           0       -1.699173    2.609587    0.752012
     33          6           0       -1.068002    3.886839    0.196998
     34          1           0       -0.996629    1.312065   -0.819076
     35          1           0       -2.600366    1.981845   -1.102885
     36          1           0       -1.048167    2.181149    1.524831
     37          1           0       -2.651195    2.850475    1.242159
     38          1           0       -1.717048    4.340130   -0.559222
     39          1           0       -0.104912    3.667001   -0.274945
     40          1           0       -0.898324    4.626343    0.985796
 ---------------------------------------------------------------------

 SCF Done:  E(RHF) =  -470.732691966     A.U. after   11 cycles
 E2 =    -0.1584978003D+01 EUMP2 =    -0.47231766996921D+03

 The electronic state is 1-A.
 Alpha  occ. eigenvalues --  -11.21663 -11.21658 -11.21657 -11.21597 -11.21482
 Alpha  occ. eigenvalues --  -11.21465 -11.21423 -11.21404 -11.21136 -11.21122
 Alpha  occ. eigenvalues --  -11.21113 -11.20993  -1.08537  -1.08442  -1.03645
 Alpha  occ. eigenvalues --   -1.03507  -0.96087  -0.95962  -0.87109  -0.86974
 Alpha  occ. eigenvalues --   -0.79750  -0.79541  -0.78388  -0.78217  -0.65505
 Alpha  occ. eigenvalues --   -0.64791  -0.61385  -0.60577  -0.59431  -0.59347
 Alpha  occ. eigenvalues --   -0.57671  -0.57599  -0.55576  -0.55037  -0.52763
 Alpha  occ. eigenvalues --   -0.52676  -0.52478  -0.52395  -0.50231  -0.49742
 Alpha  occ. eigenvalues --   -0.48087  -0.47828  -0.47085  -0.46360  -0.46097
 Alpha  occ. eigenvalues --   -0.45964  -0.45660  -0.45324  -0.43847  -0.43808
 Alpha virt. eigenvalues --    0.18342   0.21872   0.24189   0.24526   0.25245
 Alpha virt. eigenvalues --    0.25961   0.26723   0.28603   0.29471   0.29806
 Alpha virt. eigenvalues --    0.30104   0.31229   0.31595   0.31963   0.32277

 Mulliken charges:
               1
     1  C   -0.298985
     2  C   -0.306473
     3  C   -0.478916
     4  H    0.150169
     5  H    0.149615
     6  H    0.152589
     7  H    0.158172
     8  H    0.156516
     9  H    0.155722
    10  H    0.162241
    11  C   -0.299477
    12  C   -0.299806
    13  C   -0.475699
    14  H    0.150046
    15  H    0.149819
    16  H    0.152251
    17  H    0.151897
    18  H    0.155040
    19  H    0.155365
    20  H    0.160611
    21  C   -0.300744
    22  C   -0.304343
    23  C   -0.480579
    24  H    0.150637
    25  H    0.150166
    26  H    0.156167
    27  H    0.152223
    28  H    0.154526
    29  H    0.162245
    30  H    0.159517
    31  C   -0.299574
    32  C   -0.299734
    33  C   -0.475687
    34  H    0.149568
    35  H    0.150242
    36  H    0.151441
    37  H    0.152384
    38  H    0.155465
    39  H    0.154811
    40  H    0.160572
 Sum of Mulliken charges =  -0.00000

 Dipole moment (field-independent basis, Debye):
    X=              0.0163    Y=             -0.0220    Z=              0.0046  Tot=              0.0278
 Quadrupole moment (field-independent basis, Debye-Ang):
   XX=            -83.9030   YY=            -85.5254   ZZ=            -85.1531
   XY=             -1.8404   XZ=              0.5953   YZ=              0.5704

 Normal termination of Gaussian 16 at Thu May  6 05:21:27 2021.
