 Gaussian 16, Revision A.03,
 Gaussian 16:  EM64L-G16RevA.03 25-Dec-2016

 -------------
 #p 6-31g* mp2
 -------------

 ------------------------------------------------------
 Input file generated by CHIRIPA (05-May-2021 14:53:13)
 ------------------------------------------------------
 Symbolic Z-matrix:
 Charge =  0 Multiplicity = 1

                         Standard orientation:
 ---------------------------------------------------------------------
 Center     Atomic      Atomic             Coordinates (Angstroms)
 Number     Number       Type             X           Y           Z
 ---------------------------------------------------------------------
      1          6           0       -4.227278   -0.567589   -0.455207
      2          6           0       -5.369940   -1.308149    0.240407
      3          6           0       -5.704097   -2.641687   -0.428778
      4          1           0       -4.496889   -0.394718   -1.506098
      5          1           0       -3.334992   -1.208809   -0.462846
      6          1           0       -6.259408   -0.665182    0.247957
      7          1           0       -5.097657   -1.479107    1.289812
      8          1           0       -4.832771   -3.304529   -0.423181
      9          1           0       -6.001122   -2.485979   -1.470955
     10          1           0       -6.523597   -3.154258    0.084594
     11          6           0       -3.881578    0.767343    0.202195
     12          6           0       -2.738916    1.507902   -0.493419
     13          6           0       -2.404759    2.841441    0.175766
     14          1           0       -4.773864    1.408563    0.209834
     15          1           0       -3.611967    0.594472    1.253085
     16          1           0       -3.011199    1.678861   -1.542824
     17          1           0       -1.849448    0.864936   -0.500969
     18          1           0       -2.107734    2.685733    1.217943
     19          1           0       -3.276085    3.504283    0.170169
     20          1           0       -1.585259    3.354012   -0.337606
     21          6           0        1.144184    1.352893    0.572638
     22          6           0        2.111292    1.788108   -0.339398
     23          6           0        3.236415    1.003503   -0.609661
     24          6           0        3.363130   -0.216365    0.053027
     25          6           0        2.416862   -0.677408    0.966977
     26          6           0        1.299781    0.123690    1.221770
     27          1           0        0.273286    1.968799    0.776577
     28          1           0        1.993072    2.742277   -0.844997
     29          1           0        4.000369    1.316231   -1.311083
     30          1           0        2.562299   -1.633266    1.455446
     31          1           0        0.550311   -0.216841    1.930557
     32          7           0        4.549990   -1.055723   -0.224900
     33          8           0        4.638336   -2.126464    0.372046
     34          8           0        5.369432   -0.626976   -1.034423
 ---------------------------------------------------------------------

 SCF Done:  E(RHF) =  -669.535295060     A.U. after   15 cycles
 E2 =    -0.2091964687D+01 EUMP2 =    -0.67162725974778D+03

 The electronic state is 1-A.
 Alpha  occ. eigenvalues --  -20.60744 -20.60739 -15.85798 -11.31159 -11.27736
 Alpha  occ. eigenvalues --  -11.27730 -11.27387 -11.26742 -11.26723 -11.22625
 Alpha  occ. eigenvalues --  -11.22432 -11.22245 -11.22151 -11.22030 -11.21500
 Alpha  occ. eigenvalues --   -1.59820  -1.39373  -1.19331  -1.09240  -1.08718
 Alpha  occ. eigenvalues --   -1.04737  -1.04374  -0.96848  -0.95550  -0.87853
 Alpha  occ. eigenvalues --   -0.86131  -0.82392  -0.80432  -0.78988  -0.77445
 Alpha  occ. eigenvalues --   -0.72015  -0.71143  -0.70473  -0.65874  -0.64979
 Alpha  occ. eigenvalues --   -0.64743  -0.62089  -0.61783  -0.60255  -0.58419
 Alpha  occ. eigenvalues --   -0.56296  -0.55001  -0.53517  -0.53241  -0.53060
 Alpha  occ. eigenvalues --   -0.52826  -0.50764  -0.48773  -0.48772  -0.48736
 Alpha  occ. eigenvalues --   -0.47469  -0.46539  -0.46440  -0.44780  -0.44602
 Alpha  occ. eigenvalues --   -0.37279  -0.36348
 Alpha virt. eigenvalues --    0.05066   0.11276   0.16481   0.19713   0.22635
 Alpha virt. eigenvalues --    0.24069   0.25572   0.26265   0.26654   0.27328
 Alpha virt. eigenvalues --    0.29824   0.30050   0.30919   0.31280   0.31918

 Mulliken charges:
               1
     1  C   -0.299014
     2  C   -0.300122
     3  C   -0.476175
     4  H    0.151923
     5  H    0.150171
     6  H    0.152986
     7  H    0.151389
     8  H    0.156084
     9  H    0.156405
    10  H    0.161892
    11  C   -0.298049
    12  C   -0.304980
    13  C   -0.484442
    14  H    0.152242
    15  H    0.146878
    16  H    0.157266
    17  H    0.153181
    18  H    0.149832
    19  H    0.165565
    20  H    0.155880
    21  C   -0.175645
    22  C   -0.222613
    23  C   -0.170571
    24  C    0.158189
    25  C   -0.170511
    26  C   -0.222928
    27  H    0.241125
    28  H    0.223325
    29  H    0.275494
    30  H    0.275368
    31  H    0.222913
    32  N    0.488033
    33  O   -0.460602
    34  O   -0.460492
 Sum of Mulliken charges =  -0.00000

 Dipole moment (field-independent basis, Debye):
    X=             -4.4020    Y=              2.9444    Z=              0.9115  Tot=              5.3738
 Quadrupole moment (field-independent basis, Debye-Ang):
   XX=           -121.8585   YY=            -94.6775   ZZ=            -92.8637
   XY=             11.5521   XZ=              2.3144   YZ=             -3.3588

 Normal termination of Gaussian 16 at Thu May  6 13:42:36 2021.
