 Gaussian 16, Revision A.03,
 Gaussian 16:  EM64L-G16RevA.03 25-Dec-2016

 -------------
 #p 6-31g* mp2
 -------------

 ------------------------------------------------------
 Input file generated by CHIRIPA (05-May-2021 14:55:23)
 ------------------------------------------------------
 Symbolic Z-matrix:
 Charge =  0 Multiplicity = 1

                         Standard orientation:
 ---------------------------------------------------------------------
 Center     Atomic      Atomic             Coordinates (Angstroms)
 Number     Number       Type             X           Y           Z
 ---------------------------------------------------------------------
      1          6           0       -2.524812    2.159362    1.268168
      2          6           0       -1.364994    1.377535    1.277733
      3          6           0       -1.335081    0.143606    0.621172
      4          6           0       -2.488172   -0.279668   -0.038002
      5          6           0       -3.658980    0.476466   -0.065570
      6          6           0       -3.666091    1.707129    0.597729
      7          1           0       -2.539193    3.116639    1.780818
      8          1           0       -0.477182    1.726221    1.797591
      9          1           0       -0.450648   -0.481793    0.612661
     10          1           0       -4.528397    0.102276   -0.592366
     11          1           0       -4.568232    2.312195    0.588633
     12          7           0       -2.468574   -1.584245   -0.736640
     13          8           0       -3.497618   -1.934691   -1.310133
     14          8           0       -1.424541   -2.231624   -0.697511
     15          6           0        2.963741   -0.647095   -0.097886
     16          6           0        3.688468   -1.504134    0.940497
     17          6           0        3.226970   -2.961771    0.930008
     18          1           0        1.882126   -0.692102    0.089274
     19          1           0        3.126408   -1.076998   -1.095943
     20          1           0        3.525627   -1.071956    1.936148
     21          1           0        4.768497   -1.456929    0.750960
     22          1           0        3.404729   -3.415087   -0.050558
     23          1           0        2.154798   -3.027927    1.141365
     24          1           0        3.757914   -3.556384    1.679935
     25          6           0        3.414248    0.812620   -0.099597
     26          6           0        2.689521    1.669659   -1.137981
     27          6           0        3.151020    3.127296   -1.127491
     28          1           0        3.251582    1.242522    0.898459
     29          1           0        4.495863    0.857626   -0.286757
     30          1           0        1.609492    1.622454   -0.948444
     31          1           0        2.852362    1.237481   -2.133631
     32          1           0        4.223192    3.193451   -1.338848
     33          1           0        2.973260    3.580612   -0.146927
     34          1           0        2.620076    3.721909   -1.877420
 ---------------------------------------------------------------------

 SCF Done:  E(RHF) =  -669.535557409     A.U. after   15 cycles
 E2 =    -0.2092054326D+01 EUMP2 =    -0.67162761173511D+03

 The electronic state is 1-A.
 Alpha  occ. eigenvalues --  -20.60794 -20.60788 -15.85846 -11.31228 -11.27805
 Alpha  occ. eigenvalues --  -11.27801 -11.27548 -11.26833 -11.26818 -11.21894
 Alpha  occ. eigenvalues --  -11.21703 -11.21683 -11.21579 -11.21406 -11.20880
 Alpha  occ. eigenvalues --   -1.59867  -1.39420  -1.19408  -1.08797  -1.08661
 Alpha  occ. eigenvalues --   -1.04817  -1.03687  -0.96130  -0.95630  -0.87138
 Alpha  occ. eigenvalues --   -0.86212  -0.82462  -0.79750  -0.78470  -0.77500
 Alpha  occ. eigenvalues --   -0.72065  -0.71189  -0.70524  -0.65351  -0.65056
 Alpha  occ. eigenvalues --   -0.64808  -0.62162  -0.61093  -0.59504  -0.57728
 Alpha  occ. eigenvalues --   -0.55457  -0.55287  -0.53140  -0.52934  -0.52799
 Alpha  occ. eigenvalues --   -0.52514  -0.50068  -0.48826  -0.48820  -0.48051
 Alpha  occ. eigenvalues --   -0.46803  -0.45978  -0.45933  -0.44820  -0.43964
 Alpha  occ. eigenvalues --   -0.37384  -0.36408
 Alpha virt. eigenvalues --    0.04994   0.11220   0.16425   0.19404   0.23051
 Alpha virt. eigenvalues --    0.23622   0.25164   0.26751   0.27647   0.28101
 Alpha virt. eigenvalues --    0.30002   0.30373   0.31543   0.31742   0.31958

 Mulliken charges:
               1
     1  C   -0.170583
     2  C   -0.222431
     3  C   -0.179604
     4  C    0.158211
     5  C   -0.169919
     6  C   -0.218772
     7  H    0.225964
     8  H    0.223979
     9  H    0.288675
    10  H    0.275901
    11  H    0.223754
    12  N    0.486829
    13  O   -0.460144
    14  O   -0.460592
    15  C   -0.303154
    16  C   -0.299932
    17  C   -0.476363
    18  H    0.147250
    19  H    0.156650
    20  H    0.147513
    21  H    0.152692
    22  H    0.159123
    23  H    0.160255
    24  H    0.159364
    25  C   -0.298280
    26  C   -0.301188
    27  C   -0.475200
    28  H    0.143116
    29  H    0.152231
    30  H    0.148870
    31  H    0.156501
    32  H    0.157055
    33  H    0.150895
    34  H    0.161336
 Sum of Mulliken charges =  -0.00000

 Dipole moment (field-independent basis, Debye):
    X=             -0.0467    Y=              4.4963    Z=              2.3608  Tot=              5.0787
 Quadrupole moment (field-independent basis, Debye-Ang):
   XX=            -89.1155   YY=            -98.8543   ZZ=            -94.8184
   XY=            -13.0541   XZ=             -5.5045   YZ=             -0.7155

 Normal termination of Gaussian 16 at Wed May  5 23:57:48 2021.
