 Gaussian 16, Revision A.03,
 Gaussian 16:  EM64L-G16RevA.03 25-Dec-2016

 -------------
 #p 6-31g* mp2
 -------------

 ------------------------------------------------------
 Input file generated by CHIRIPA (05-May-2021 14:53:15)
 ------------------------------------------------------
 Symbolic Z-matrix:
 Charge =  0 Multiplicity = 1

                         Standard orientation:
 ---------------------------------------------------------------------
 Center     Atomic      Atomic             Coordinates (Angstroms)
 Number     Number       Type             X           Y           Z
 ---------------------------------------------------------------------
      1          6           0        3.526869   -0.704653   -0.187730
      2          6           0        2.661838   -1.742262    0.528563
      3          6           0        3.108140   -3.177859    0.249873
      4          1           0        3.497621   -0.895839   -1.269182
      5          1           0        4.572902   -0.831464    0.123926
      6          1           0        1.617543   -1.612633    0.216699
      7          1           0        2.692995   -1.548466    1.608419
      8          1           0        4.141555   -3.330492    0.577529
      9          1           0        3.059992   -3.395024   -0.822098
     10          1           0        2.476143   -3.903217    0.771693
     11          6           0        3.093116    0.735255    0.081064
     12          6           0        3.958147    1.772863   -0.635229
     13          6           0        3.511845    3.208461   -0.356539
     14          1           0        2.047084    0.862066   -0.230593
     15          1           0        3.122364    0.926441    1.162516
     16          1           0        3.926990    1.579068   -1.715085
     17          1           0        5.002443    1.643235   -0.323365
     18          1           0        3.559994    3.425625    0.715432
     19          1           0        2.478430    3.361094   -0.684195
     20          1           0        4.143842    3.933819   -0.878359
     21          6           0       -3.059722    2.440162    0.400239
     22          6           0       -3.993789    1.636163   -0.261293
     23          6           0       -3.741827    0.276256   -0.465542
     24          6           0       -2.540127   -0.249015    0.007001
     25          6           0       -1.589681    0.526082    0.669697
     26          6           0       -1.862760    1.883537    0.862807
     27          1           0       -3.263654    3.495618    0.554578
     28          1           0       -4.924211    2.065734   -0.621609
     29          1           0       -4.447469   -0.369069   -0.974506
     30          1           0       -0.671094    0.069301    1.017500
     31          1           0       -1.135519    2.505534    1.376894
     32          7           0       -2.262209   -1.687390   -0.203332
     33          8           0       -1.195993   -2.126040    0.222585
     34          8           0       -3.115855   -2.348902   -0.790127
 ---------------------------------------------------------------------

 SCF Done:  E(RHF) =  -669.536298435     A.U. after   15 cycles
 E2 =    -0.2091769100D+01 EUMP2 =    -0.67162806753461D+03

 The electronic state is 1-A.
 Alpha  occ. eigenvalues --  -20.60909 -20.60897 -15.85941 -11.31252 -11.27819
 Alpha  occ. eigenvalues --  -11.27798 -11.27551 -11.26827 -11.26808 -11.21714
 Alpha  occ. eigenvalues --  -11.21468 -11.21348 -11.21084 -11.20901 -11.20318
 Alpha  occ. eigenvalues --   -1.59970  -1.39526  -1.19422  -1.08828  -1.08274
 Alpha  occ. eigenvalues --   -1.04814  -1.03275  -0.95766  -0.95670  -0.86785
 Alpha  occ. eigenvalues --   -0.86215  -0.82505  -0.79404  -0.78071  -0.77525
 Alpha  occ. eigenvalues --   -0.72166  -0.71285  -0.70528  -0.65081  -0.64917
 Alpha  occ. eigenvalues --   -0.64796  -0.62159  -0.60659  -0.59174  -0.57340
 Alpha  occ. eigenvalues --   -0.55321  -0.55071  -0.53149  -0.52905  -0.52427
 Alpha  occ. eigenvalues --   -0.52192  -0.49732  -0.48944  -0.48915  -0.47691
 Alpha  occ. eigenvalues --   -0.46451  -0.45594  -0.45486  -0.44846  -0.43552
 Alpha  occ. eigenvalues --   -0.37402  -0.36414
 Alpha virt. eigenvalues --    0.04928   0.11210   0.16417   0.20630   0.23043
 Alpha virt. eigenvalues --    0.24328   0.25240   0.26976   0.27691   0.28123
 Alpha virt. eigenvalues --    0.29678   0.30409   0.31636   0.31691   0.32535

 Mulliken charges:
               1
     1  C   -0.297643
     2  C   -0.311941
     3  C   -0.474263
     4  H    0.150676
     5  H    0.148262
     6  H    0.173917
     7  H    0.145911
     8  H    0.149740
     9  H    0.155702
    10  H    0.167124
    11  C   -0.299369
    12  C   -0.298889
    13  C   -0.475831
    14  H    0.144205
    15  H    0.146152
    16  H    0.153763
    17  H    0.153487
    18  H    0.153058
    19  H    0.151482
    20  H    0.161395
    21  C   -0.170551
    22  C   -0.218629
    23  C   -0.170794
    24  C    0.157463
    25  C   -0.173692
    26  C   -0.219935
    27  H    0.225991
    28  H    0.223678
    29  H    0.275628
    30  H    0.280687
    31  H    0.225075
    32  N    0.491294
    33  O   -0.463927
    34  O   -0.459224
 Sum of Mulliken charges =  -0.00000

 Dipole moment (field-independent basis, Debye):
    X=             -1.1089    Y=              4.9452    Z=              0.6901  Tot=              5.1148
 Quadrupole moment (field-independent basis, Debye-Ang):
   XX=            -85.9661   YY=            -98.8637   ZZ=            -93.7837
   XY=            -12.1605   XZ=              0.8105   YZ=              0.1042

 Normal termination of Gaussian 16 at Wed May  5 20:18:24 2021.
