 Gaussian 16, Revision A.03,
 Gaussian 16:  EM64L-G16RevA.03 25-Dec-2016

 -------------
 #p 6-31g* mp2
 -------------

 ------------------------------------------------------
 Input file generated by CHIRIPA (05-May-2021 14:51:14)
 ------------------------------------------------------
 Symbolic Z-matrix:
 Charge =  0 Multiplicity = 1

                         Standard orientation:
 ---------------------------------------------------------------------
 Center     Atomic      Atomic             Coordinates (Angstroms)
 Number     Number       Type             X           Y           Z
 ---------------------------------------------------------------------
      1          6           0       -2.973184   -0.219826    0.025208
      2          6           0       -1.981936   -1.265625   -0.486373
      3          6           0       -0.525990   -0.823773   -0.335436
      4          1           0       -2.816056    0.721853   -0.518389
      5          1           0       -2.760571   -0.009590    1.082559
      6          1           0       -2.197235   -1.474843   -1.542067
      7          1           0       -2.141570   -2.204979    0.058371
      8          1           0       -0.288104   -0.633799    0.716192
      9          1           0       -0.344085    0.100486   -0.893340
     10          1           0        0.165556   -1.586219   -0.707324
     11          6           0       -4.432788   -0.647039   -0.118924
     12          6           0       -5.424037    0.398761    0.392657
     13          6           0       -6.879983   -0.043091    0.241719
     14          1           0       -4.645401   -0.857274   -1.176275
     15          1           0       -4.589916   -1.588717    0.424673
     16          1           0       -5.264402    1.338115   -0.152087
     17          1           0       -5.208737    0.607979    1.448351
     18          1           0       -7.061887   -0.967350    0.799623
     19          1           0       -7.117869   -0.233066   -0.809909
     20          1           0       -7.571529    0.719354    0.613607
     21          6           0        4.013314   -0.187095   -0.272634
     22          6           0        4.871365   -1.002656    0.695144
     23          6           0        5.485333   -2.240920    0.041278
     24          1           0        3.214470   -0.826530   -0.672529
     25          1           0        4.628977    0.117216   -1.130392
     26          1           0        4.254621   -1.304164    1.551494
     27          1           0        5.668144   -0.361152    1.092928
     28          1           0        6.123384   -1.955319   -0.801291
     29          1           0        4.701830   -2.903688   -0.340120
     30          1           0        6.094685   -2.809228    0.750909
     31          6           0        3.392658    1.053958    0.366350
     32          6           0        2.534608    1.869521   -0.601427
     33          6           0        1.920640    3.107784    0.052439
     34          1           0        2.776995    0.749649    1.224108
     35          1           0        4.191502    1.693394    0.766246
     36          1           0        1.737828    1.228017   -0.999212
     37          1           0        3.151351    2.171029   -1.457777
     38          1           0        2.704142    3.770552    0.433836
     39          1           0        1.282588    2.822183    0.895007
     40          1           0        1.311288    3.676092   -0.657193
 ---------------------------------------------------------------------

 SCF Done:  E(RHF) =  -470.733174354     A.U. after   11 cycles
 E2 =    -0.1582972701D+01 EUMP2 =    -0.47231614705532D+03

 The electronic state is 1-A.
 Alpha  occ. eigenvalues --  -11.21674 -11.21628 -11.21546 -11.21460 -11.21451
 Alpha  occ. eigenvalues --  -11.21390 -11.21318 -11.21258 -11.21181 -11.21092
 Alpha  occ. eigenvalues --  -11.21034 -11.21000  -1.08481  -1.08344  -1.03592
 Alpha  occ. eigenvalues --   -1.03450  -0.96043  -0.95909  -0.87070  -0.86919
 Alpha  occ. eigenvalues --   -0.79681  -0.79497  -0.78296  -0.78151  -0.65118
 Alpha  occ. eigenvalues --   -0.64973  -0.61045  -0.60818  -0.59408  -0.59281
 Alpha  occ. eigenvalues --   -0.57660  -0.57507  -0.55371  -0.55161  -0.52749
 Alpha  occ. eigenvalues --   -0.52601  -0.52482  -0.52325  -0.50040  -0.49818
 Alpha  occ. eigenvalues --   -0.48058  -0.47764  -0.46793  -0.46431  -0.45885
 Alpha  occ. eigenvalues --   -0.45767  -0.45667  -0.45505  -0.43828  -0.43706
 Alpha virt. eigenvalues --    0.21042   0.22940   0.23895   0.24644   0.25816
 Alpha virt. eigenvalues --    0.26270   0.27105   0.27525   0.27929   0.29263
 Alpha virt. eigenvalues --    0.30031   0.31064   0.31740   0.31846   0.32273

 Mulliken charges:
               1
     1  C   -0.298530
     2  C   -0.300065
     3  C   -0.479776
     4  H    0.150046
     5  H    0.149531
     6  H    0.152320
     7  H    0.152139
     8  H    0.155382
     9  H    0.158910
    10  H    0.160620
    11  C   -0.298334
    12  C   -0.299700
    13  C   -0.475743
    14  H    0.149640
    15  H    0.149723
    16  H    0.152090
    17  H    0.151994
    18  H    0.155203
    19  H    0.155231
    20  H    0.160385
    21  C   -0.299935
    22  C   -0.299560
    23  C   -0.475597
    24  H    0.151555
    25  H    0.149093
    26  H    0.151836
    27  H    0.151736
    28  H    0.155074
    29  H    0.154904
    30  H    0.160033
    31  C   -0.297423
    32  C   -0.306590
    33  C   -0.475662
    34  H    0.149717
    35  H    0.149009
    36  H    0.160260
    37  H    0.150987
    38  H    0.154905
    39  H    0.155345
    40  H    0.159244
 Sum of Mulliken charges =  -0.00000

 Dipole moment (field-independent basis, Debye):
    X=             -0.0557    Y=             -0.0182    Z=             -0.0068  Tot=              0.0590
 Quadrupole moment (field-independent basis, Debye-Ang):
   XX=            -85.7061   YY=            -85.3196   ZZ=            -83.9538
   XY=              0.6843   XZ=             -0.0579   YZ=             -0.8580

 Normal termination of Gaussian 16 at Thu May  6 04:00:06 2021.
