 Gaussian 16, Revision A.03,
 Gaussian 16:  EM64L-G16RevA.03 25-Dec-2016

 -------------
 #p 6-31g* mp2
 -------------

 ------------------------------------------------------
 Input file generated by CHIRIPA (05-May-2021 14:57:24)
 ------------------------------------------------------
 Symbolic Z-matrix:
 Charge =  0 Multiplicity = 1

                         Standard orientation:
 ---------------------------------------------------------------------
 Center     Atomic      Atomic             Coordinates (Angstroms)
 Number     Number       Type             X           Y           Z
 ---------------------------------------------------------------------
      1          6           0        5.226834   -1.834678   -0.247872
      2          6           0        3.839265   -1.969738   -0.361599
      3          6           0        3.008848   -0.846964   -0.295770
      4          6           0        3.602379    0.401323   -0.114689
      5          6           0        4.981426    0.568378    0.001990
      6          6           0        5.792488   -0.568284   -0.066760
      7          1           0        5.864404   -2.712270   -0.300145
      8          1           0        3.397200   -2.951992   -0.502312
      9          1           0        1.931619   -0.922854   -0.380839
     10          1           0        5.392904    1.560648    0.141642
     11          1           0        6.869775   -0.460389    0.021873
     12          7           0        2.733499    1.597305   -0.043453
     13          8           0        3.281048    2.685978    0.116601
     14          8           0        1.521374    1.423396   -0.149021
     15          6           0       -6.062111    0.447998   -0.631356
     16          6           0       -5.713544   -0.902744   -0.528787
     17          6           0       -4.432904   -1.275714   -0.109976
     18          6           0       -3.521628   -0.267264    0.199690
     19          6           0       -3.838818    1.087056    0.107499
     20          6           0       -5.125287    1.436843   -0.313446
     21          1           0       -7.059207    0.728724   -0.957527
     22          1           0       -6.439050   -1.672843   -0.775025
     23          1           0       -4.136500   -2.313875   -0.021746
     24          1           0       -3.094056    1.832082    0.359857
     25          1           0       -5.393205    2.486636   -0.392177
     26          7           0       -2.162787   -0.649840    0.644195
     27          8           0       -1.378139    0.257729    0.911191
     28          8           0       -1.908104   -1.850025    0.717188
 ---------------------------------------------------------------------

 SCF Done:  E(RHF) =  -868.337501090     A.U. after   16 cycles
 E2 =    -0.2599622573D+01 EUMP2 =    -0.87093712366245D+03

 The electronic state is 1-A.
 Alpha  occ. eigenvalues --  -20.60395 -20.60247 -20.59728 -20.59622 -15.85344
 Alpha  occ. eigenvalues --  -15.84718 -11.30783 -11.30202 -11.27408 -11.27305
 Alpha  occ. eigenvalues --  -11.27146 -11.26864 -11.26690 -11.26626 -11.26433
 Alpha  occ. eigenvalues --  -11.26371 -11.25912 -11.25809  -1.59399  -1.58760
 Alpha  occ. eigenvalues --   -1.38940  -1.38299  -1.18971  -1.18407  -1.08362
 Alpha  occ. eigenvalues --   -1.07796  -1.04381  -1.03820  -0.95180  -0.94598
 Alpha  occ. eigenvalues --   -0.85777  -0.85217  -0.82005  -0.81412  -0.77037
 Alpha  occ. eigenvalues --   -0.76429  -0.71593  -0.70925  -0.70684  -0.70094
 Alpha  occ. eigenvalues --   -0.70072  -0.69521  -0.64620  -0.64390  -0.64054
 Alpha  occ. eigenvalues --   -0.63833  -0.61720  -0.61146  -0.54897  -0.54357
 Alpha  occ. eigenvalues --   -0.52715  -0.52473  -0.52162  -0.51911  -0.48379
 Alpha  occ. eigenvalues --   -0.48330  -0.47740  -0.47662  -0.44318  -0.43664
 Alpha  occ. eigenvalues --   -0.36968  -0.36427  -0.35989  -0.35431
 Alpha virt. eigenvalues --    0.05483   0.06092   0.11664   0.12217   0.16951
 Alpha virt. eigenvalues --    0.17538   0.21783   0.22318   0.27696   0.28232
 Alpha virt. eigenvalues --    0.28699   0.29259   0.31315   0.31831   0.33000

 Mulliken charges:
               1
     1  C   -0.171559
     2  C   -0.219764
     3  C   -0.171024
     4  C    0.156932
     5  C   -0.171986
     6  C   -0.219334
     7  H    0.222235
     8  H    0.223696
     9  H    0.287954
    10  H    0.272751
    11  H    0.219712
    12  N    0.487356
    13  O   -0.468783
    14  O   -0.449086
    15  C   -0.171098
    16  C   -0.218866
    17  C   -0.171733
    18  C    0.157710
    19  C   -0.170569
    20  C   -0.219003
    21  H    0.224319
    22  H    0.221459
    23  H    0.273068
    24  H    0.282389
    25  H    0.223888
    26  N    0.486886
    27  O   -0.445811
    28  O   -0.471741
 Sum of Mulliken charges =  -0.00000

 Dipole moment (field-independent basis, Debye):
    X=             -1.9471    Y=             -2.7265    Z=             -1.7743  Tot=              3.7913
 Quadrupole moment (field-independent basis, Debye-Ang):
   XX=            -48.7474   YY=           -103.5210   ZZ=           -107.0837
   XY=            -14.3391   XZ=              4.1615   YZ=              2.0876

 Normal termination of Gaussian 16 at Fri May  7 04:59:19 2021.
