 Gaussian 16, Revision A.03,
 Gaussian 16:  EM64L-G16RevA.03 25-Dec-2016

 -------------
 #p 6-31g* mp2
 -------------

 ------------------------------------------------------
 Input file generated by CHIRIPA (05-May-2021 14:51:08)
 ------------------------------------------------------
 Symbolic Z-matrix:
 Charge =  0 Multiplicity = 1

                         Standard orientation:
 ---------------------------------------------------------------------
 Center     Atomic      Atomic             Coordinates (Angstroms)
 Number     Number       Type             X           Y           Z
 ---------------------------------------------------------------------
      1          6           0       -3.223413    0.102196    0.634345
      2          6           0       -2.382360   -0.730977    1.602042
      3          6           0       -1.246270    0.070244    2.238546
      4          1           0       -2.572302    0.506626   -0.152698
      5          1           0       -3.638833    0.966361    1.171038
      6          1           0       -1.969779   -1.594066    1.064016
      7          1           0       -3.035581   -1.133628    2.386764
      8          1           0       -1.643174    0.922437    2.799648
      9          1           0       -0.571316    0.459383    1.469384
     10          1           0       -0.657859   -0.544643    2.926693
     11          6           0       -4.363148   -0.684915   -0.010008
     12          6           0       -5.204201    0.148258   -0.977705
     13          6           0       -6.340291   -0.652964   -1.614208
     14          1           0       -3.947727   -1.549080   -0.546701
     15          1           0       -5.014258   -1.089345    0.777035
     16          1           0       -4.550979    0.550909   -1.762427
     17          1           0       -5.616781    1.011346   -0.439679
     18          1           0       -7.015244   -1.042103   -0.845047
     19          1           0       -5.943387   -1.505156   -2.175311
     20          1           0       -6.928701   -0.038076   -2.302356
     21          6           0        3.063448    0.514503   -0.280825
     22          6           0        2.892682    2.033896   -0.297252
     23          6           0        1.427025    2.464762   -0.234027
     24          1           0        2.515480    0.081132   -1.128684
     25          1           0        2.600442    0.110305    0.630024
     26          1           0        3.357086    2.435251   -1.207119
     27          1           0        3.441279    2.463717    0.550636
     28          1           0        0.955009    2.091954    0.680751
     29          1           0        0.870337    2.063326   -1.086992
     30          1           0        1.328062    3.554670   -0.246937
     31          6           0        4.523113    0.068217   -0.343512
     32          6           0        4.693879   -1.451177   -0.327085
     33          6           0        6.159535   -1.882042   -0.390311
     34          1           0        4.986119    0.472414   -1.254361
     35          1           0        5.071081    0.501588    0.504347
     36          1           0        4.145282   -1.880998   -1.174973
     37          1           0        4.229475   -1.852531    0.582782
     38          1           0        6.716223   -1.480608    0.462654
     39          1           0        6.631552   -1.509235   -1.305087
     40          1           0        6.258499   -2.971951   -0.377400
 ---------------------------------------------------------------------

 SCF Done:  E(RHF) =  -470.733310656     A.U. after   11 cycles
 E2 =    -0.1582476627D+01 EUMP2 =    -0.47231578728326D+03

 The electronic state is 1-A.
 Alpha  occ. eigenvalues --  -11.21606 -11.21605 -11.21582 -11.21577 -11.21412
 Alpha  occ. eigenvalues --  -11.21376 -11.21352 -11.21316 -11.21074 -11.21066
 Alpha  occ. eigenvalues --  -11.21057 -11.21032  -1.08438  -1.08403  -1.03545
 Alpha  occ. eigenvalues --   -1.03499  -0.96005  -0.95942  -0.87035  -0.86949
 Alpha  occ. eigenvalues --   -0.79647  -0.79529  -0.78262  -0.78202  -0.65082
 Alpha  occ. eigenvalues --   -0.65021  -0.61008  -0.60846  -0.59361  -0.59321
 Alpha  occ. eigenvalues --   -0.57683  -0.57500  -0.55384  -0.55150  -0.52678
 Alpha  occ. eigenvalues --   -0.52655  -0.52549  -0.52265  -0.50056  -0.49786
 Alpha  occ. eigenvalues --   -0.48057  -0.47754  -0.46717  -0.46501  -0.45850
 Alpha  occ. eigenvalues --   -0.45742  -0.45703  -0.45573  -0.43790  -0.43763
 Alpha virt. eigenvalues --    0.21812   0.23053   0.23511   0.24827   0.25979
 Alpha virt. eigenvalues --    0.26512   0.27105   0.27526   0.27985   0.29040
 Alpha virt. eigenvalues --    0.30635   0.31578   0.31741   0.31801   0.32113

 Mulliken charges:
               1
     1  C   -0.298497
     2  C   -0.299103
     3  C   -0.483427
     4  H    0.150328
     5  H    0.149503
     6  H    0.151945
     7  H    0.151739
     8  H    0.155002
     9  H    0.162822
    10  H    0.159581
    11  C   -0.298322
    12  C   -0.299619
    13  C   -0.475690
    14  H    0.149423
    15  H    0.149554
    16  H    0.151948
    17  H    0.151958
    18  H    0.155143
    19  H    0.155110
    20  H    0.160196
    21  C   -0.299336
    22  C   -0.299329
    23  C   -0.482143
    24  H    0.149105
    25  H    0.150692
    26  H    0.151880
    27  H    0.152143
    28  H    0.162357
    29  H    0.154117
    30  H    0.160706
    31  C   -0.298274
    32  C   -0.299672
    33  C   -0.475717
    34  H    0.149563
    35  H    0.149790
    36  H    0.151796
    37  H    0.152078
    38  H    0.155237
    39  H    0.155166
    40  H    0.160249
 Sum of Mulliken charges =  -0.00000

 Dipole moment (field-independent basis, Debye):
    X=              0.0127    Y=              0.0130    Z=              0.0026  Tot=              0.0184
 Quadrupole moment (field-independent basis, Debye-Ang):
   XX=            -86.1997   YY=            -85.1392   ZZ=            -83.4765
   XY=             -0.0866   XZ=             -0.8219   YZ=              0.0032

 Normal termination of Gaussian 16 at Thu May  6 08:27:18 2021.
