 Gaussian 16, Revision A.03,
 Gaussian 16:  EM64L-G16RevA.03 25-Dec-2016

 -------------
 #p 6-31g* mp2
 -------------

 ------------------------------------------------------
 Input file generated by CHIRIPA (05-May-2021 14:57:21)
 ------------------------------------------------------
 Symbolic Z-matrix:
 Charge =  0 Multiplicity = 1

                         Standard orientation:
 ---------------------------------------------------------------------
 Center     Atomic      Atomic             Coordinates (Angstroms)
 Number     Number       Type             X           Y           Z
 ---------------------------------------------------------------------
      1          6           0       -5.000678    0.827222    0.613201
      2          6           0       -3.923209    1.714088    0.518074
      3          6           0       -2.693610    1.285469    0.009231
      4          6           0       -2.576090   -0.042836   -0.397076
      5          6           0       -3.630995   -0.950419   -0.314858
      6          6           0       -4.851396   -0.499861    0.197165
      7          1           0       -5.952288    1.168704    1.009718
      8          1           0       -4.036257    2.745282    0.840415
      9          1           0       -1.843053    1.950895   -0.075495
     10          1           0       -3.487883   -1.972421   -0.644174
     11          1           0       -5.686452   -1.190831    0.269881
     12          7           0       -1.279238   -0.508208   -0.937449
     13          8           0       -1.201385   -1.683464   -1.288660
     14          8           0       -0.365174    0.311101   -0.999550
     15          6           0        3.579815    2.249460   -0.418810
     16          6           0        2.755701    2.118426    0.703771
     17          6           0        2.311986    0.858250    1.115620
     18          6           0        2.713454   -0.254606    0.378284
     19          6           0        3.533856   -0.156606   -0.744493
     20          6           0        3.965582    1.113529   -1.138091
     21          1           0        3.919847    3.232263   -0.731656
     22          1           0        2.454526    2.998857    1.264288
     23          1           0        1.673382    0.728085    1.980872
     24          1           0        3.817399   -1.052682   -1.283071
     25          1           0        4.605536    1.212281   -2.010302
     26          7           0        2.250059   -1.593970    0.804629
     27          8           0        2.617838   -2.558847    0.138003
     28          8           0        1.527846   -1.653526    1.797352
 ---------------------------------------------------------------------

 SCF Done:  E(RHF) =  -868.337582748     A.U. after   16 cycles
 E2 =    -0.2601283688D+01 EUMP2 =    -0.87093886643600D+03

 The electronic state is 1-A.
 Alpha  occ. eigenvalues --  -20.60687 -20.60627 -20.59540 -20.59479 -15.85682
 Alpha  occ. eigenvalues --  -15.84563 -11.31065 -11.29857 -11.27686 -11.27596
 Alpha  occ. eigenvalues --  -11.27397 -11.26699 -11.26634 -11.26542 -11.26464
 Alpha  occ. eigenvalues --  -11.26343 -11.25619 -11.25550  -1.59721  -1.58561
 Alpha  occ. eigenvalues --   -1.39276  -1.38133  -1.19241  -1.18064  -1.08637
 Alpha  occ. eigenvalues --   -1.07499  -1.04654  -1.03530  -0.95472  -0.94349
 Alpha  occ. eigenvalues --   -0.86052  -0.84949  -0.82308  -0.81221  -0.77353
 Alpha  occ. eigenvalues --   -0.76244  -0.71926  -0.71073  -0.70823  -0.70363
 Alpha  occ. eigenvalues --   -0.69775  -0.69299  -0.64902  -0.64668  -0.63791
 Alpha  occ. eigenvalues --   -0.63618  -0.62008  -0.60928  -0.55164  -0.54113
 Alpha  occ. eigenvalues --   -0.52975  -0.52756  -0.51785  -0.51695  -0.48695
 Alpha  occ. eigenvalues --   -0.48646  -0.47570  -0.47550  -0.44688  -0.43560
 Alpha  occ. eigenvalues --   -0.37225  -0.36257  -0.35979  -0.35079
 Alpha virt. eigenvalues --    0.05178   0.06365   0.11399   0.12557   0.16684
 Alpha virt. eigenvalues --    0.17826   0.21489   0.22385   0.27370   0.28161
 Alpha virt. eigenvalues --    0.28472   0.29302   0.31036   0.31840   0.32618

 Mulliken charges:
               1
     1  C   -0.170696
     2  C   -0.218381
     3  C   -0.171561
     4  C    0.160879
     5  C   -0.168852
     6  C   -0.218376
     7  H    0.225101
     8  H    0.221242
     9  H    0.271280
    10  H    0.278326
    11  H    0.224077
    12  N    0.489743
    13  O   -0.452186
    14  O   -0.468769
    15  C   -0.170242
    16  C   -0.218915
    17  C   -0.162827
    18  C    0.176927
    19  C   -0.165223
    20  C   -0.217789
    21  H    0.219390
    22  H    0.214451
    23  H    0.267733
    24  H    0.273856
    25  H    0.218780
    26  N    0.490347
    27  O   -0.458570
    28  O   -0.469746
 Sum of Mulliken charges =  -0.00000

 Dipole moment (field-independent basis, Debye):
    X=             -3.1481    Y=              6.0371    Z=              0.2294  Tot=              6.8125
 Quadrupole moment (field-independent basis, Debye-Ang):
   XX=            -72.0617   YY=           -103.3688   ZZ=           -106.0203
   XY=              9.0354   XZ=             -8.9223   YZ=              4.1446

 Normal termination of Gaussian 16 at Thu May  6 14:30:19 2021.
