 Gaussian 16, Revision A.03,
 Gaussian 16:  EM64L-G16RevA.03 25-Dec-2016

 -------------
 #p 6-31g* mp2
 -------------

 ------------------------------------------------------
 Input file generated by CHIRIPA (05-May-2021 14:51:10)
 ------------------------------------------------------
 Symbolic Z-matrix:
 Charge =  0 Multiplicity = 1

                         Standard orientation:
 ---------------------------------------------------------------------
 Center     Atomic      Atomic             Coordinates (Angstroms)
 Number     Number       Type             X           Y           Z
 ---------------------------------------------------------------------
      1          6           0        2.642624   -0.783445    0.654389
      2          6           0        1.348267   -1.329753    0.050923
      3          6           0        0.331934   -1.749764    1.113210
      4          1           0        3.086659   -1.547695    1.306846
      5          1           0        2.405425    0.076169    1.296414
      6          1           0        1.587987   -2.187224   -0.590866
      7          1           0        0.907361   -0.564183   -0.600323
      8          1           0        0.063899   -0.898788    1.747715
      9          1           0        0.748392   -2.531050    1.757226
     10          1           0       -0.585768   -2.137247    0.659845
     11          6           0        3.668555   -0.359333   -0.395050
     12          6           0        4.962913    0.186975    0.208416
     13          6           0        5.979245    0.606987   -0.853870
     14          1           0        3.905755   -1.218947   -1.037075
     15          1           0        3.224520    0.404917   -1.047507
     16          1           0        5.403818   -0.578594    0.859663
     17          1           0        4.723193    1.044446    0.850206
     18          1           0        5.562788    1.388273   -1.497886
     19          1           0        6.247281   -0.243989   -1.488376
     20          1           0        6.896947    0.994469   -0.400505
     21          6           0       -3.195520    1.315453    0.038277
     22          6           0       -1.840817    2.022543   -0.014534
     23          6           0       -1.937046    3.510512    0.323820
     24          1           0       -3.886387    1.807745   -0.659789
     25          1           0       -3.625912    1.437114    1.041948
     26          1           0       -1.412478    1.898407   -1.017395
     27          1           0       -1.153037    1.528391    0.683597
     28          1           0       -2.340844    3.651071    1.331685
     29          1           0       -2.601759    4.023190   -0.378973
     30          1           0       -0.957299    3.996353    0.280071
     31          6           0       -3.115659   -0.172675   -0.297616
     32          6           0       -4.470363   -0.879766   -0.244806
     33          6           0       -4.374134   -2.367734   -0.583160
     34          1           0       -2.685267   -0.294336   -1.301288
     35          1           0       -2.424792   -0.664968    0.400449
     36          1           0       -5.158142   -0.385613   -0.942937
     37          1           0       -4.898701   -0.755630    0.758056
     38          1           0       -3.709421   -2.880412    0.119633
     39          1           0       -3.970335   -2.508294   -1.591025
     40          1           0       -5.353881   -2.853575   -0.539410
 ---------------------------------------------------------------------

 SCF Done:  E(RHF) =  -470.732950894     A.U. after   11 cycles
 E2 =    -0.1583582996D+01 EUMP2 =    -0.47231653388946D+03

 The electronic state is 1-A.
 Alpha  occ. eigenvalues --  -11.21634 -11.21597 -11.21579 -11.21578 -11.21398
 Alpha  occ. eigenvalues --  -11.21379 -11.21338 -11.21277 -11.21103 -11.21078
 Alpha  occ. eigenvalues --  -11.21074 -11.21068  -1.08446  -1.08398  -1.03536
 Alpha  occ. eigenvalues --   -1.03527  -0.96016  -0.95950  -0.87037  -0.86969
 Alpha  occ. eigenvalues --   -0.79635  -0.79558  -0.78238  -0.78233  -0.65137
 Alpha  occ. eigenvalues --   -0.64982  -0.60971  -0.60900  -0.59433  -0.59284
 Alpha  occ. eigenvalues --   -0.57668  -0.57519  -0.55349  -0.55201  -0.52765
 Alpha  occ. eigenvalues --   -0.52666  -0.52453  -0.52319  -0.49971  -0.49887
 Alpha  occ. eigenvalues --   -0.48034  -0.47795  -0.46648  -0.46620  -0.45830
 Alpha  occ. eigenvalues --   -0.45761  -0.45675  -0.45594  -0.43783  -0.43719
 Alpha virt. eigenvalues --    0.20579   0.22983   0.23642   0.24032   0.25925
 Alpha virt. eigenvalues --    0.26358   0.27106   0.27499   0.27913   0.29464
 Alpha virt. eigenvalues --    0.30166   0.31320   0.31651   0.31981   0.32552

 Mulliken charges:
               1
     1  C   -0.298442
     2  C   -0.301125
     3  C   -0.480452
     4  H    0.149575
     5  H    0.149300
     6  H    0.151869
     7  H    0.154659
     8  H    0.154792
     9  H    0.155122
    10  H    0.164392
    11  C   -0.298308
    12  C   -0.299647
    13  C   -0.475701
    14  H    0.149502
    15  H    0.149791
    16  H    0.151909
    17  H    0.151907
    18  H    0.155168
    19  H    0.155171
    20  H    0.160232
    21  C   -0.297697
    22  C   -0.302601
    23  C   -0.475674
    24  H    0.149502
    25  H    0.149295
    26  H    0.151725
    27  H    0.154170
    28  H    0.155311
    29  H    0.155475
    30  H    0.159887
    31  C   -0.306907
    32  C   -0.299099
    33  C   -0.476773
    34  H    0.148558
    35  H    0.160695
    36  H    0.151694
    37  H    0.151774
    38  H    0.155269
    39  H    0.155164
    40  H    0.160518
 Sum of Mulliken charges =  -0.00000

 Dipole moment (field-independent basis, Debye):
    X=              0.0000    Y=             -0.0105    Z=              0.0028  Tot=              0.0109
 Quadrupole moment (field-independent basis, Debye-Ang):
   XX=            -85.4120   YY=            -85.1713   ZZ=            -84.2958
   XY=             -0.7893   XZ=              0.6147   YZ=             -0.2330

 Normal termination of Gaussian 16 at Thu May  6 05:25:01 2021.
