 Gaussian 16, Revision A.03,
 Gaussian 16:  EM64L-G16RevA.03 25-Dec-2016

 -------------
 #p 6-31g* mp2
 -------------

 ------------------------------------------------------
 Input file generated by CHIRIPA (05-May-2021 14:51:12)
 ------------------------------------------------------
 Symbolic Z-matrix:
 Charge =  0 Multiplicity = 1

                         Standard orientation:
 ---------------------------------------------------------------------
 Center     Atomic      Atomic             Coordinates (Angstroms)
 Number     Number       Type             X           Y           Z
 ---------------------------------------------------------------------
      1          6           0       -3.023879   -0.744424    0.156433
      2          6           0       -1.919239   -0.904092    1.201546
      3          6           0       -1.138100   -2.208697    1.041484
      4          1           0       -3.712967   -1.597112    0.227322
      5          1           0       -2.578237   -0.785279   -0.847125
      6          1           0       -2.366656   -0.861561    2.202858
      7          1           0       -1.232808   -0.050826    1.128289
      8          1           0       -0.665230   -2.256051    0.055202
      9          1           0       -1.805520   -3.071392    1.135877
     10          1           0       -0.353476   -2.302322    1.798755
     11          6           0       -3.813680    0.554939    0.303399
     12          6           0       -4.918320    0.714607   -0.741713
     13          6           0       -5.699459    2.019213   -0.581652
     14          1           0       -4.259322    0.595795    1.306957
     15          1           0       -3.124592    1.407628    0.232510
     16          1           0       -5.604751   -0.138659   -0.668456
     17          1           0       -4.470904    0.672076   -1.743025
     18          1           0       -5.032039    2.881907   -0.676044
     19          1           0       -6.172329    2.066566    0.404631
     20          1           0       -6.484084    2.112838   -1.338922
     21          6           0        3.348931    0.855316   -0.238868
     22          6           0        4.555190    1.582063    0.356753
     23          6           0        4.400543    3.103001    0.331748
     24          1           0        3.199524    1.193152   -1.273512
     25          1           0        2.445605    1.142143    0.317126
     26          1           0        5.456177    1.292886   -0.199317
     27          1           0        4.701860    1.242317    1.390038
     28          1           0        3.518381    3.409968    0.902856
     29          1           0        4.276985    3.460823   -0.695528
     30          1           0        5.274078    3.602487    0.762226
     31          6           0        3.488628   -0.665832   -0.220965
     32          6           0        2.282369   -1.392579   -0.816586
     33          6           0        2.437016   -2.913516   -0.791581
     34          1           0        4.391953   -0.952658   -0.776958
     35          1           0        3.638036   -1.003667    0.813680
     36          1           0        2.135700   -1.052832   -1.849871
     37          1           0        1.381382   -1.103401   -0.260516
     38          1           0        2.560574   -3.271339    0.235696
     39          1           0        3.319178   -3.220483   -1.362689
     40          1           0        1.563482   -3.413003   -1.222059
 ---------------------------------------------------------------------

 SCF Done:  E(RHF) =  -470.732869426     A.U. after   11 cycles
 E2 =    -0.1583137379D+01 EUMP2 =    -0.47231600680453D+03

 The electronic state is 1-A.
 Alpha  occ. eigenvalues --  -11.21636 -11.21608 -11.21604 -11.21534 -11.21419
 Alpha  occ. eigenvalues --  -11.21400 -11.21359 -11.21336 -11.21077 -11.21075
 Alpha  occ. eigenvalues --  -11.21053 -11.21035  -1.08456  -1.08410  -1.03586
 Alpha  occ. eigenvalues --   -1.03479  -0.96039  -0.95923  -0.87017  -0.86975
 Alpha  occ. eigenvalues --   -0.79639  -0.79554  -0.78266  -0.78229  -0.65179
 Alpha  occ. eigenvalues --   -0.64970  -0.61189  -0.60719  -0.59360  -0.59334
 Alpha  occ. eigenvalues --   -0.57676  -0.57528  -0.55418  -0.55093  -0.52704
 Alpha  occ. eigenvalues --   -0.52646  -0.52456  -0.52332  -0.49982  -0.49860
 Alpha  occ. eigenvalues --   -0.47934  -0.47885  -0.46743  -0.46488  -0.45841
 Alpha  occ. eigenvalues --   -0.45759  -0.45729  -0.45613  -0.43798  -0.43771
 Alpha virt. eigenvalues --    0.21001   0.23173   0.23502   0.24730   0.26249
 Alpha virt. eigenvalues --    0.26476   0.26871   0.27529   0.28126   0.29112
 Alpha virt. eigenvalues --    0.29969   0.31344   0.31661   0.32041   0.32223

 Mulliken charges:
               1
     1  C   -0.298282
     2  C   -0.301514
     3  C   -0.480264
     4  H    0.149789
     5  H    0.149850
     6  H    0.152209
     7  H    0.151790
     8  H    0.161141
     9  H    0.155616
    10  H    0.159657
    11  C   -0.298336
    12  C   -0.299690
    13  C   -0.475728
    14  H    0.149502
    15  H    0.149728
    16  H    0.151943
    17  H    0.152029
    18  H    0.155241
    19  H    0.155166
    20  H    0.160289
    21  C   -0.298260
    22  C   -0.299620
    23  C   -0.475713
    24  H    0.149487
    25  H    0.148960
    26  H    0.152015
    27  H    0.151990
    28  H    0.155095
    29  H    0.155107
    30  H    0.160303
    31  C   -0.297661
    32  C   -0.306930
    33  C   -0.475628
    34  H    0.149375
    35  H    0.149481
    36  H    0.150873
    37  H    0.159945
    38  H    0.155723
    39  H    0.154989
    40  H    0.160334
 Sum of Mulliken charges =  -0.00000

 Dipole moment (field-independent basis, Debye):
    X=             -0.0163    Y=             -0.0149    Z=              0.0013  Tot=              0.0221
 Quadrupole moment (field-independent basis, Debye-Ang):
   XX=            -84.6397   YY=            -86.6069   ZZ=            -83.5705
   XY=              0.8760   XZ=             -0.7921   YZ=             -0.3800

 Normal termination of Gaussian 16 at Wed May  5 23:10:51 2021.
