 Gaussian 16, Revision A.03,
 Gaussian 16:  EM64L-G16RevA.03 25-Dec-2016

 -------------
 #p 6-31g* mp2
 -------------

 ------------------------------------------------------
 Input file generated by CHIRIPA (05-May-2021 14:55:22)
 ------------------------------------------------------
 Symbolic Z-matrix:
 Charge =  0 Multiplicity = 1

                         Standard orientation:
 ---------------------------------------------------------------------
 Center     Atomic      Atomic             Coordinates (Angstroms)
 Number     Number       Type             X           Y           Z
 ---------------------------------------------------------------------
      1          6           0       -2.372677    2.490116    0.220864
      2          6           0       -1.794370    1.411788    0.898576
      3          6           0       -2.292451    0.116624    0.728243
      4          6           0       -3.374820   -0.064874   -0.131307
      5          6           0       -3.972596    0.989109   -0.820562
      6          6           0       -3.458030    2.275712   -0.635032
      7          1           0       -1.979353    3.492905    0.359086
      8          1           0       -0.951377    1.575326    1.563905
      9          1           0       -1.863801   -0.736165    1.240521
     10          1           0       -4.811955    0.794786   -1.477170
     11          1           0       -3.909148    3.111271   -1.162650
     12          7           0       -3.910841   -1.431475   -0.319674
     13          8           0       -4.865236   -1.564950   -1.082532
     14          8           0       -3.366431   -2.343266    0.299108
     15          6           0        3.493638   -0.477429    0.098154
     16          6           0        2.645001   -0.090171    1.309696
     17          6           0        1.221060   -0.642051    1.234758
     18          1           0        3.004992   -0.112362   -0.815572
     19          1           0        3.527675   -1.572798    0.018126
     20          1           0        2.613716    1.004119    1.388221
     21          1           0        3.135821   -0.456036    2.220659
     22          1           0        1.234044   -1.735406    1.179922
     23          1           0        0.708972   -0.266954    0.342754
     24          1           0        0.631954   -0.353272    2.110783
     25          6           0        4.919743    0.066913    0.158515
     26          6           0        5.768380   -0.320345   -1.053027
     27          6           0        7.192321    0.231534   -0.978089
     28          1           0        4.885705    1.162281    0.238543
     29          1           0        5.408389   -0.298154    1.072241
     30          1           0        5.277559    0.045520   -1.963990
     31          1           0        5.799664   -1.414635   -1.131552
     32          1           0        7.704409   -0.143563   -0.086085
     33          1           0        7.179337    1.324889   -0.923253
     34          1           0        7.781427   -0.057245   -1.854114
 ---------------------------------------------------------------------

 SCF Done:  E(RHF) =  -669.534540494     A.U. after   15 cycles
 E2 =    -0.2092283846D+01 EUMP2 =    -0.67162682434034D+03

 The electronic state is 1-A.
 Alpha  occ. eigenvalues --  -20.60703 -20.60698 -15.85756 -11.31104 -11.27686
 Alpha  occ. eigenvalues --  -11.27625 -11.27425 -11.26705 -11.26639 -11.22223
 Alpha  occ. eigenvalues --  -11.21870 -11.21816 -11.21811 -11.21718 -11.21302
 Alpha  occ. eigenvalues --   -1.59779  -1.39332  -1.19286  -1.08857  -1.08684
 Alpha  occ. eigenvalues --   -1.04702  -1.03984  -0.96465  -0.95517  -0.87499
 Alpha  occ. eigenvalues --   -0.86080  -0.82356  -0.80073  -0.78640  -0.77385
 Alpha  occ. eigenvalues --   -0.71975  -0.71103  -0.70396  -0.65494  -0.64937
 Alpha  occ. eigenvalues --   -0.64690  -0.62150  -0.61334  -0.59809  -0.58054
 Alpha  occ. eigenvalues --   -0.55743  -0.55191  -0.53243  -0.53058  -0.52860
 Alpha  occ. eigenvalues --   -0.52663  -0.50350  -0.48733  -0.48728  -0.48370
 Alpha  occ. eigenvalues --   -0.47072  -0.46186  -0.46094  -0.44740  -0.44248
 Alpha  occ. eigenvalues --   -0.37280  -0.36233
 Alpha virt. eigenvalues --    0.05113   0.11337   0.16535   0.20538   0.22594
 Alpha virt. eigenvalues --    0.23844   0.26054   0.26253   0.27014   0.28074
 Alpha virt. eigenvalues --    0.28861   0.30102   0.31058   0.31502   0.32211

 Mulliken charges:
               1
     1  C   -0.171868
     2  C   -0.220351
     3  C   -0.172947
     4  C    0.158245
     5  C   -0.171280
     6  C   -0.218805
     7  H    0.225082
     8  H    0.227035
     9  H    0.280510
    10  H    0.275247
    11  H    0.222992
    12  N    0.488273
    13  O   -0.460877
    14  O   -0.460359
    15  C   -0.299283
    16  C   -0.300165
    17  C   -0.485617
    18  H    0.150723
    19  H    0.153014
    20  H    0.147784
    21  H    0.154805
    22  H    0.165036
    23  H    0.161528
    24  H    0.149239
    25  C   -0.298590
    26  C   -0.300074
    27  C   -0.475912
    28  H    0.148389
    29  H    0.150567
    30  H    0.152311
    31  H    0.153539
    32  H    0.155687
    33  H    0.154699
    34  H    0.161425
 Sum of Mulliken charges =  -0.00000

 Dipole moment (field-independent basis, Debye):
    X=              2.0459    Y=              4.7332    Z=              0.6175  Tot=              5.1932
 Quadrupole moment (field-independent basis, Debye-Ang):
   XX=           -106.3043   YY=            -94.6440   ZZ=            -93.3672
   XY=            -18.6943   XZ=              0.1603   YZ=             -2.4259

 Normal termination of Gaussian 16 at Wed May  5 19:01:03 2021.
