 Gaussian 16, Revision A.03,
 Gaussian 16:  EM64L-G16RevA.03 25-Dec-2016

 -------------
 #p 6-31g* mp2
 -------------

 ------------------------------------------------------
 Input file generated by CHIRIPA (05-May-2021 14:55:23)
 ------------------------------------------------------
 Symbolic Z-matrix:
 Charge =  0 Multiplicity = 1

                         Standard orientation:
 ---------------------------------------------------------------------
 Center     Atomic      Atomic             Coordinates (Angstroms)
 Number     Number       Type             X           Y           Z
 ---------------------------------------------------------------------
      1          6           0       -2.378209   -2.346596   -0.916931
      2          6           0       -2.950129   -1.202824   -1.483688
      3          6           0       -2.763770    0.050932   -0.893846
      4          6           0       -1.996244    0.124738    0.267510
      5          6           0       -1.413419   -0.996486    0.856122
      6          6           0       -1.613028   -2.239965    0.249109
      7          1           0       -2.528123   -3.316552   -1.381804
      8          1           0       -3.544855   -1.282636   -2.389213
      9          1           0       -3.195055    0.952590   -1.311487
     10          1           0       -0.825593   -0.885316    1.759183
     11          1           0       -1.167664   -3.126537    0.691474
     12          7           0       -1.791940    1.446593    0.901038
     13          8           0       -1.111505    1.484929    1.923865
     14          8           0       -2.316110    2.419298    0.362774
     15          6           0        2.568087    0.680875   -0.725518
     16          6           0        2.221854    2.042331   -0.121741
     17          6           0        2.165185    3.155838   -1.168012
     18          1           0        3.535585    0.750953   -1.241253
     19          1           0        1.822855    0.427342   -1.492164
     20          1           0        2.966735    2.292589    0.644510
     21          1           0        1.255158    1.968954    0.392779
     22          1           0        1.409091    2.932556   -1.927662
     23          1           0        3.130392    3.258031   -1.674502
     24          1           0        1.916131    4.120375   -0.714689
     25          6           0        2.628497   -0.442487    0.307989
     26          6           0        2.974729   -1.803943   -0.295787
     27          6           0        3.031398   -2.917451    0.750484
     28          1           0        3.373728   -0.188954    1.074635
     29          1           0        1.660999   -0.512565    0.823724
     30          1           0        3.941424   -1.730566   -0.810308
     31          1           0        2.229849   -2.054201   -1.062038
     32          1           0        2.066191   -3.019643    1.256975
     33          1           0        3.787492   -2.694168    1.510134
     34          1           0        3.280451   -3.881987    0.297161
 ---------------------------------------------------------------------

 SCF Done:  E(RHF) =  -669.535977716     A.U. after   15 cycles
 E2 =    -0.2093738465D+01 EUMP2 =    -0.67162971618117D+03

 The electronic state is 1-A.
 Alpha  occ. eigenvalues --  -20.60998 -20.60991 -15.86010 -11.31345 -11.27909
 Alpha  occ. eigenvalues --  -11.27903 -11.27635 -11.26913 -11.26900 -11.21719
 Alpha  occ. eigenvalues --  -11.21426 -11.21271 -11.21071 -11.20870 -11.20423
 Alpha  occ. eigenvalues --   -1.60054  -1.39608  -1.19514  -1.08912  -1.08227
 Alpha  occ. eigenvalues --   -1.04910  -1.03304  -0.95792  -0.95751  -0.86813
 Alpha  occ. eigenvalues --   -0.86306  -0.82587  -0.79397  -0.77989  -0.77623
 Alpha  occ. eigenvalues --   -0.72234  -0.71383  -0.70619  -0.65165  -0.64942
 Alpha  occ. eigenvalues --   -0.64841  -0.62255  -0.60706  -0.59193  -0.57355
 Alpha  occ. eigenvalues --   -0.55408  -0.55119  -0.53228  -0.52997  -0.52477
 Alpha  occ. eigenvalues --   -0.52203  -0.49768  -0.49005  -0.48998  -0.47701
 Alpha  occ. eigenvalues --   -0.46459  -0.45717  -0.45476  -0.44681  -0.43548
 Alpha  occ. eigenvalues --   -0.37482  -0.36483
 Alpha virt. eigenvalues --    0.04830   0.11057   0.16279   0.20157   0.23049
 Alpha virt. eigenvalues --    0.24166   0.25684   0.27060   0.27331   0.28269
 Alpha virt. eigenvalues --    0.29295   0.30471   0.31633   0.32040   0.32420

 Mulliken charges:
               1
     1  C   -0.170657
     2  C   -0.218349
     3  C   -0.170927
     4  C    0.157611
     5  C   -0.170687
     6  C   -0.219615
     7  H    0.226531
     8  H    0.224155
     9  H    0.276089
    10  H    0.276605
    11  H    0.225414
    12  N    0.487403
    13  O   -0.458301
    14  O   -0.457751
    15  C   -0.298648
    16  C   -0.307859
    17  C   -0.474656
    18  H    0.148011
    19  H    0.146219
    20  H    0.151749
    21  H    0.166714
    22  H    0.152504
    23  H    0.150700
    24  H    0.165620
    25  C   -0.299340
    26  C   -0.299711
    27  C   -0.473822
    28  H    0.151349
    29  H    0.148079
    30  H    0.153330
    31  H    0.149644
    32  H    0.144794
    33  H    0.158588
    34  H    0.159213
 Sum of Mulliken charges =  -0.00000

 Dipole moment (field-independent basis, Debye):
    X=             -0.8633    Y=             -4.5421    Z=             -2.1842  Tot=              5.1134
 Quadrupole moment (field-independent basis, Debye-Ang):
   XX=            -89.8704   YY=            -96.2583   ZZ=            -94.2602
   XY=              8.3188   XZ=              6.9757   YZ=             -2.3914

 Normal termination of Gaussian 16 at Thu May  6 19:16:48 2021.
