 Gaussian 16, Revision A.03,
 Gaussian 16:  EM64L-G16RevA.03 25-Dec-2016

 -------------
 #p 6-31g* mp2
 -------------

 ------------------------------------------------------
 Input file generated by CHIRIPA (05-May-2021 14:55:22)
 ------------------------------------------------------
 Symbolic Z-matrix:
 Charge =  0 Multiplicity = 1

                         Standard orientation:
 ---------------------------------------------------------------------
 Center     Atomic      Atomic             Coordinates (Angstroms)
 Number     Number       Type             X           Y           Z
 ---------------------------------------------------------------------
      1          6           0       -4.381958   -0.632247   -1.233945
      2          6           0       -4.253988    0.661084   -0.716801
      3          6           0       -3.186742    0.986540    0.125585
      4          6           0       -2.261594   -0.010368    0.431472
      5          6           0       -2.361762   -1.307989   -0.067963
      6          6           0       -3.437102   -1.610931   -0.908450
      7          1           0       -5.214164   -0.876324   -1.887593
      8          1           0       -4.986274    1.423161   -0.967882
      9          1           0       -3.063555    1.979814    0.539890
     10          1           0       -1.615960   -2.046399    0.200270
     11          1           0       -3.533957   -2.616185   -1.308609
     12          7           0       -1.127465    0.322260    1.322263
     13          8           0       -0.325767   -0.573971    1.576601
     14          8           0       -1.061706    1.472906    1.749259
     15          6           0        2.673658    0.669646   -0.531076
     16          6           0        3.376926    2.026432   -0.480785
     17          6           0        2.442731    3.189311   -0.816628
     18          1           0        2.247183    0.521750   -1.532670
     19          1           0        1.828206    0.676463    0.170752
     20          1           0        4.221637    2.016584   -1.181485
     21          1           0        3.801940    2.171032    0.520748
     22          1           0        1.606282    3.227572   -0.111298
     23          1           0        2.028364    3.072247   -1.823204
     24          1           0        2.966031    4.149656   -0.774739
     25          6           0        3.594535   -0.502762   -0.197652
     26          6           0        2.891267   -1.859549   -0.247942
     27          6           0        3.825461   -3.022427    0.087900
     28          1           0        4.439986   -0.509580   -0.899479
     29          1           0        4.021010   -0.354866    0.803942
     30          1           0        2.466252   -2.004149   -1.249475
     31          1           0        2.046556   -1.849701    0.452759
     32          1           0        4.239829   -2.905363    1.094477
     33          1           0        4.661911   -3.060688   -0.617429
     34          1           0        3.302163   -3.982773    0.046012
 ---------------------------------------------------------------------

 SCF Done:  E(RHF) =  -669.536793085     A.U. after   15 cycles
 E2 =    -0.2092348999D+01 EUMP2 =    -0.67162914208424D+03

 The electronic state is 1-A.
 Alpha  occ. eigenvalues --  -20.61107 -20.61101 -15.86105 -11.31346 -11.27901
 Alpha  occ. eigenvalues --  -11.27896 -11.27631 -11.26891 -11.26881 -11.20639
 Alpha  occ. eigenvalues --  -11.20563 -11.20377 -11.20319 -11.20215 -11.20181
 Alpha  occ. eigenvalues --   -1.60149  -1.39707  -1.19508  -1.08929  -1.07405
 Alpha  occ. eigenvalues --   -1.04892  -1.02593  -0.95785  -0.95060  -0.86297
 Alpha  occ. eigenvalues --   -0.86082  -0.82626  -0.78657  -0.77691  -0.77228
 Alpha  occ. eigenvalues --   -0.72335  -0.71452  -0.70620  -0.65168  -0.64897
 Alpha  occ. eigenvalues --   -0.64001  -0.62240  -0.59975  -0.58442  -0.56682
 Alpha  occ. eigenvalues --   -0.55405  -0.54337  -0.53227  -0.52984  -0.51792
 Alpha  occ. eigenvalues --   -0.51502  -0.49151  -0.49099  -0.48948  -0.46987
 Alpha  occ. eigenvalues --   -0.45679  -0.45332  -0.44794  -0.44330  -0.42825
 Alpha  occ. eigenvalues --   -0.37480  -0.36487
 Alpha virt. eigenvalues --    0.04775   0.11169   0.16250   0.21217   0.23963
 Alpha virt. eigenvalues --    0.25108   0.27023   0.27455   0.27875   0.28832
 Alpha virt. eigenvalues --    0.29079   0.31029   0.31746   0.32356   0.32655

 Mulliken charges:
               1
     1  C   -0.170264
     2  C   -0.218681
     3  C   -0.170462
     4  C    0.158766
     5  C   -0.169995
     6  C   -0.218733
     7  H    0.226252
     8  H    0.224064
     9  H    0.275962
    10  H    0.276308
    11  H    0.224150
    12  N    0.490683
    13  O   -0.461699
    14  O   -0.459069
    15  C   -0.308041
    16  C   -0.297571
    17  C   -0.478838
    18  H    0.140694
    19  H    0.170260
    20  H    0.146809
    21  H    0.153728
    22  H    0.164621
    23  H    0.149141
    24  H    0.156580
    25  C   -0.295161
    26  C   -0.309428
    27  C   -0.474528
    28  H    0.143705
    29  H    0.151497
    30  H    0.142834
    31  H    0.173792
    32  H    0.156190
    33  H    0.151456
    34  H    0.154978
 Sum of Mulliken charges =  -0.00000

 Dipole moment (field-independent basis, Debye):
    X=             -4.3323    Y=             -1.1438    Z=             -2.9012  Tot=              5.3380
 Quadrupole moment (field-independent basis, Debye-Ang):
   XX=            -77.6827   YY=            -91.8600   ZZ=            -97.5244
   XY=              1.5555   XZ=              5.8187   YZ=              0.4204

 Normal termination of Gaussian 16 at Thu May  6 03:05:06 2021.
