 Gaussian 16, Revision A.03,
 Gaussian 16:  EM64L-G16RevA.03 25-Dec-2016

 -------------
 #p 6-31g* mp2
 -------------

 ------------------------------------------------------
 Input file generated by CHIRIPA (05-May-2021 14:55:24)
 ------------------------------------------------------
 Symbolic Z-matrix:
 Charge =  0 Multiplicity = 1

                         Standard orientation:
 ---------------------------------------------------------------------
 Center     Atomic      Atomic             Coordinates (Angstroms)
 Number     Number       Type             X           Y           Z
 ---------------------------------------------------------------------
      1          6           0       -1.279962   -0.096211    2.613789
      2          6           0       -1.125087   -1.305235    1.927645
      3          6           0       -1.414747   -1.389026    0.562498
      4          6           0       -1.859183   -0.239050   -0.088134
      5          6           0       -2.023534    0.979996    0.567766
      6          6           0       -1.727901    1.040542    1.932860
      7          1           0       -1.052627   -0.040148    3.674248
      8          1           0       -0.777384   -2.189662    2.453892
      9          1           0       -1.303712   -2.312248    0.006846
     10          1           0       -2.371951    1.844679    0.016088
     11          1           0       -1.849108    1.980825    2.463165
     12          7           0       -2.168995   -0.315452   -1.533326
     13          8           0       -2.559016    0.711995   -2.083665
     14          8           0       -2.015936   -1.401335   -2.088364
     15          6           0        1.869660    0.887944   -0.024899
     16          6           0        2.446202    2.223073   -0.497145
     17          6           0        1.545075    3.410083   -0.155427
     18          1           0        0.880216    0.741782   -0.479412
     19          1           0        1.711558    0.928594    1.061722
     20          1           0        2.604464    2.179430   -1.582347
     21          1           0        3.434471    2.365986   -0.041606
     22          1           0        1.396477    3.481924    0.926866
     23          1           0        0.561754    3.294309   -0.622630
     24          1           0        1.976322    4.354390   -0.502082
     25          6           0        2.759133   -0.308211   -0.359232
     26          6           0        2.182593   -1.643339    0.113014
     27          6           0        3.083720   -2.830349   -0.228704
     28          1           0        2.917236   -0.348860   -1.445853
     29          1           0        3.748578   -0.162047    0.095281
     30          1           0        1.194323   -1.786252   -0.342525
     31          1           0        2.024330   -1.599697    1.198216
     32          1           0        4.067040   -2.714574    0.238499
     33          1           0        3.232317   -2.902190   -1.310997
     34          1           0        2.652471   -3.774656    0.117951
 ---------------------------------------------------------------------

 SCF Done:  E(RHF) =  -669.533386421     A.U. after   15 cycles
 E2 =    -0.2096751440D+01 EUMP2 =    -0.67163013786101D+03

 The electronic state is 1-A.
 Alpha  occ. eigenvalues --  -20.60858 -20.60853 -15.85904 -11.31193 -11.27790
 Alpha  occ. eigenvalues --  -11.27785 -11.27548 -11.26806 -11.26795 -11.21704
 Alpha  occ. eigenvalues --  -11.21611 -11.21408 -11.21306 -11.21204 -11.21195
 Alpha  occ. eigenvalues --   -1.59935  -1.39489  -1.19418  -1.08816  -1.08474
 Alpha  occ. eigenvalues --   -1.04819  -1.03613  -0.96066  -0.95656  -0.87087
 Alpha  occ. eigenvalues --   -0.86217  -0.82487  -0.79707  -0.78326  -0.77523
 Alpha  occ. eigenvalues --   -0.72123  -0.71270  -0.70536  -0.65140  -0.65064
 Alpha  occ. eigenvalues --   -0.64793  -0.62177  -0.61008  -0.59447  -0.57697
 Alpha  occ. eigenvalues --   -0.55361  -0.55314  -0.53387  -0.52906  -0.52675
 Alpha  occ. eigenvalues --   -0.52482  -0.50010  -0.48883  -0.48879  -0.48066
 Alpha  occ. eigenvalues --   -0.46729  -0.45806  -0.45645  -0.44888  -0.43848
 Alpha  occ. eigenvalues --   -0.37310  -0.36278
 Alpha virt. eigenvalues --    0.04959   0.11070   0.16434   0.20923   0.22929
 Alpha virt. eigenvalues --    0.23742   0.25941   0.26894   0.27364   0.27753
 Alpha virt. eigenvalues --    0.28882   0.30204   0.30749   0.31789   0.31984

 Mulliken charges:
               1
     1  C   -0.172237
     2  C   -0.212569
     3  C   -0.171548
     4  C    0.159347
     5  C   -0.171690
     6  C   -0.214940
     7  H    0.225649
     8  H    0.223887
     9  H    0.275747
    10  H    0.275498
    11  H    0.223941
    12  N    0.488392
    13  O   -0.460505
    14  O   -0.461444
    15  C   -0.300580
    16  C   -0.299342
    17  C   -0.475860
    18  H    0.153364
    19  H    0.146188
    20  H    0.155532
    21  H    0.150426
    22  H    0.149209
    23  H    0.156160
    24  H    0.161393
    25  C   -0.298581
    26  C   -0.301470
    27  C   -0.475141
    28  H    0.153304
    29  H    0.147951
    30  H    0.154751
    31  H    0.145076
    32  H    0.154576
    33  H    0.159593
    34  H    0.155922
 Sum of Mulliken charges =  -0.00000

 Dipole moment (field-independent basis, Debye):
    X=              1.0160    Y=              0.2629    Z=              5.0552  Tot=              5.1630
 Quadrupole moment (field-independent basis, Debye-Ang):
   XX=            -99.5430   YY=            -91.4142   ZZ=            -95.4274
   XY=             -1.5484   XZ=             -9.4355   YZ=             -1.3438

 Normal termination of Gaussian 16 at Thu May  6 07:55:15 2021.
