 Gaussian 16, Revision A.03,
 Gaussian 16:  EM64L-G16RevA.03 25-Dec-2016

 -------------
 #p 6-31g* mp2
 -------------

 ------------------------------------------------------
 Input file generated by CHIRIPA (05-May-2021 14:53:15)
 ------------------------------------------------------
 Symbolic Z-matrix:
 Charge =  0 Multiplicity = 1

                         Standard orientation:
 ---------------------------------------------------------------------
 Center     Atomic      Atomic             Coordinates (Angstroms)
 Number     Number       Type             X           Y           Z
 ---------------------------------------------------------------------
      1          6           0        5.186350    0.249423    0.240278
      2          6           0        6.320876   -0.137706   -0.708915
      3          6           0        7.485050    0.852878   -0.673725
      4          1           0        4.823886    1.252867   -0.021762
      5          1           0        5.580762    0.316922    1.263644
      6          1           0        5.924147   -0.205806   -1.729986
      7          1           0        6.680553   -1.140423   -0.444707
      8          1           0        7.907948    0.914682    0.334213
      9          1           0        7.147246    1.854610   -0.958369
     10          1           0        8.284892    0.556908   -1.359665
     11          6           0        4.015253   -0.731234    0.216380
     12          6           0        2.880727   -0.344105    1.165574
     13          6           0        1.716554   -1.334689    1.130383
     14          1           0        3.620841   -0.798733   -0.806986
     15          1           0        4.377717   -1.734678    0.478420
     16          1           0        2.521051    0.658612    0.901365
     17          1           0        3.277456   -0.276005    2.186644
     18          1           0        2.054358   -2.336421    1.415027
     19          1           0        1.293655   -1.396493    0.122446
     20          1           0        0.916711   -1.038719    1.816323
     21          6           0       -6.051374   -0.354865    0.006436
     22          6           0       -5.167267   -1.289471   -0.542550
     23          6           0       -3.803874   -0.999317   -0.649888
     24          6           0       -3.356843    0.240709   -0.196250
     25          6           0       -4.212768    1.192741    0.355399
     26          6           0       -5.572148    0.881079    0.452872
     27          1           0       -7.108931   -0.588619    0.085987
     28          1           0       -5.536625   -2.250120   -0.890076
     29          1           0       -3.097428   -1.704449   -1.070767
     30          1           0       -3.814915    2.141960    0.693211
     31          1           0       -6.256452    1.608836    0.879655
     32          7           0       -1.915605    0.559268   -0.304662
     33          8           0       -1.546809    1.658829    0.102270
     34          8           0       -1.182048   -0.296638   -0.794514
 ---------------------------------------------------------------------

 SCF Done:  E(RHF) =  -669.535990838     A.U. after   15 cycles
 E2 =    -0.2090929834D+01 EUMP2 =    -0.67162692067212D+03

 The electronic state is 1-A.
 Alpha  occ. eigenvalues --  -20.60926 -20.60906 -15.85952 -11.31279 -11.27842
 Alpha  occ. eigenvalues --  -11.27838 -11.27581 -11.26851 -11.26841 -11.20860
 Alpha  occ. eigenvalues --  -11.20474 -11.20448 -11.20285 -11.20212 -11.19448
 Alpha  occ. eigenvalues --   -1.59978  -1.39535  -1.19447  -1.08851  -1.07406
 Alpha  occ. eigenvalues --   -1.04844  -1.02449  -0.95695  -0.94899  -0.86245
 Alpha  occ. eigenvalues --   -0.85924  -0.82527  -0.78556  -0.77578  -0.77186
 Alpha  occ. eigenvalues --   -0.72181  -0.71293  -0.70556  -0.65104  -0.64848
 Alpha  occ. eigenvalues --   -0.64033  -0.62191  -0.59828  -0.58330  -0.56508
 Alpha  occ. eigenvalues --   -0.55351  -0.54177  -0.53175  -0.52936  -0.51610
 Alpha  occ. eigenvalues --   -0.51336  -0.49124  -0.48928  -0.48641  -0.46859
 Alpha  occ. eigenvalues --   -0.45605  -0.44945  -0.44722  -0.44567  -0.42723
 Alpha  occ. eigenvalues --   -0.37426  -0.36446
 Alpha virt. eigenvalues --    0.04943   0.11209   0.16431   0.21340   0.23855
 Alpha virt. eigenvalues --    0.25441   0.27261   0.27659   0.28203   0.28491
 Alpha virt. eigenvalues --    0.29132   0.30921   0.32354   0.32589   0.32721

 Mulliken charges:
               1
     1  C   -0.297844
     2  C   -0.298963
     3  C   -0.475190
     4  H    0.150929
     5  H    0.146993
     6  H    0.151806
     7  H    0.149968
     8  H    0.153849
     9  H    0.155065
    10  H    0.157877
    11  C   -0.298246
    12  C   -0.299949
    13  C   -0.476662
    14  H    0.151951
    15  H    0.145192
    16  H    0.160539
    17  H    0.144714
    18  H    0.143108
    19  H    0.176289
    20  H    0.155320
    21  C   -0.170623
    22  C   -0.218559
    23  C   -0.170658
    24  C    0.157976
    25  C   -0.170723
    26  C   -0.218586
    27  H    0.225929
    28  H    0.223805
    29  H    0.275840
    30  H    0.275780
    31  H    0.223744
    32  N    0.489914
    33  O   -0.459969
    34  O   -0.460615
 Sum of Mulliken charges =  -0.00000

 Dipole moment (field-independent basis, Debye):
    X=             -5.4045    Y=             -1.0466    Z=              0.2640  Tot=              5.5113
 Quadrupole moment (field-independent basis, Debye-Ang):
   XX=            -63.0134   YY=            -91.7310   ZZ=            -94.5824
   XY=              1.2159   XZ=             -0.5922   YZ=              2.3775

 Normal termination of Gaussian 16 at Thu May  6 04:16:35 2021.
