 Gaussian 16, Revision A.03,
 Gaussian 16:  EM64L-G16RevA.03 25-Dec-2016

 -------------
 #p 6-31g* mp2
 -------------

 ------------------------------------------------------
 Input file generated by CHIRIPA (05-May-2021 14:51:13)
 ------------------------------------------------------
 Symbolic Z-matrix:
 Charge =  0 Multiplicity = 1

                         Standard orientation:
 ---------------------------------------------------------------------
 Center     Atomic      Atomic             Coordinates (Angstroms)
 Number     Number       Type             X           Y           Z
 ---------------------------------------------------------------------
      1          6           0        2.975282    0.304227   -0.112693
      2          6           0        4.494691    0.406907   -0.249943
      3          6           0        4.935104    1.642157   -1.036065
      4          1           0        2.523611    0.283676   -1.113950
      5          1           0        2.596840    1.209243    0.382408
      6          1           0        4.870307   -0.498651   -0.743394
      7          1           0        4.942810    0.427023    0.751756
      8          1           0        4.588192    2.556228   -0.543392
      9          1           0        4.515277    1.625295   -2.047036
     10          1           0        6.024865    1.695786   -1.122113
     11          6           0        2.519499   -0.925491    0.670750
     12          6           0        1.000090   -1.028171    0.808001
     13          6           0        0.559677   -2.263421    1.594123
     14          1           0        2.897940   -1.830506    0.175650
     15          1           0        2.971170   -0.904940    1.672007
     16          1           0        0.551971   -1.048287   -0.193698
     17          1           0        0.624474   -0.122613    1.301451
     18          1           0        0.979504   -2.246559    2.605094
     19          1           0        0.906589   -3.177492    1.101449
     20          1           0       -0.530085   -2.317050    1.680170
     21          6           0       -2.659620    1.055783   -0.422129
     22          6           0       -3.065553    1.950203    0.749714
     23          6           0       -2.884278    3.438156    0.448164
     24          1           0       -1.610246    1.253916   -0.680012
     25          1           0       -3.255026    1.327149   -1.304879
     26          1           0       -2.470533    1.676299    1.630362
     27          1           0       -4.114026    1.749781    1.004960
     28          1           0       -3.490600    3.733077   -0.414388
     29          1           0       -1.837767    3.659178    0.214568
     30          1           0       -3.180388    4.059255    1.299288
     31          6           0       -2.835160   -0.434519   -0.135928
     32          6           0       -2.429227   -1.328940   -1.307771
     33          6           0       -2.610503   -2.816891   -1.006221
     34          1           0       -2.239755   -0.705886    0.746821
     35          1           0       -3.884534   -0.632653    0.121954
     36          1           0       -1.380755   -1.128517   -1.563018
     37          1           0       -3.024249   -1.055036   -2.188420
     38          1           0       -3.657013   -3.037915   -0.772625
     39          1           0       -2.004181   -3.111814   -0.143670
     40          1           0       -2.314393   -3.437992   -1.857346
 ---------------------------------------------------------------------

 SCF Done:  E(RHF) =  -470.732251240     A.U. after   11 cycles
 E2 =    -0.1584964015D+01 EUMP2 =    -0.47231721525561D+03

 The electronic state is 1-A.
 Alpha  occ. eigenvalues --  -11.21684 -11.21649 -11.21580 -11.21557 -11.21475
 Alpha  occ. eigenvalues --  -11.21416 -11.21351 -11.21291 -11.21159 -11.21107
 Alpha  occ. eigenvalues --  -11.21055 -11.21010  -1.08528  -1.08373  -1.03642
 Alpha  occ. eigenvalues --   -1.03467  -0.96059  -0.95943  -0.87083  -0.86955
 Alpha  occ. eigenvalues --   -0.79715  -0.79532  -0.78328  -0.78208  -0.65246
 Alpha  occ. eigenvalues --   -0.64989  -0.61262  -0.60756  -0.59421  -0.59241
 Alpha  occ. eigenvalues --   -0.57626  -0.57558  -0.55432  -0.55135  -0.52775
 Alpha  occ. eigenvalues --   -0.52648  -0.52484  -0.52365  -0.50116  -0.49798
 Alpha  occ. eigenvalues --   -0.48040  -0.47884  -0.46908  -0.46426  -0.46002
 Alpha  occ. eigenvalues --   -0.45815  -0.45656  -0.45394  -0.43829  -0.43746
 Alpha virt. eigenvalues --    0.19990   0.23146   0.23230   0.24669   0.25439
 Alpha virt. eigenvalues --    0.26181   0.26894   0.27716   0.29052   0.29460
 Alpha virt. eigenvalues --    0.30391   0.30609   0.31809   0.31851   0.32297

 Mulliken charges:
               1
     1  C   -0.298432
     2  C   -0.299689
     3  C   -0.475794
     4  H    0.149343
     5  H    0.149380
     6  H    0.152123
     7  H    0.152130
     8  H    0.155236
     9  H    0.155298
    10  H    0.160469
    11  C   -0.297972
    12  C   -0.306699
    13  C   -0.481644
    14  H    0.149890
    15  H    0.149952
    16  H    0.158880
    17  H    0.151893
    18  H    0.155935
    19  H    0.155974
    20  H    0.164576
    21  C   -0.298868
    22  C   -0.299876
    23  C   -0.475695
    24  H    0.151111
    25  H    0.149213
    26  H    0.151561
    27  H    0.151864
    28  H    0.155210
    29  H    0.155164
    30  H    0.160049
    31  C   -0.303702
    32  C   -0.302663
    33  C   -0.481006
    34  H    0.155568
    35  H    0.149436
    36  H    0.154161
    37  H    0.152156
    38  H    0.154984
    39  H    0.160796
    40  H    0.159688
 Sum of Mulliken charges =  -0.00000

 Dipole moment (field-independent basis, Debye):
    X=              0.0421    Y=             -0.0124    Z=              0.0131  Tot=              0.0458
 Quadrupole moment (field-independent basis, Debye-Ang):
   XX=            -84.1624   YY=            -86.4506   ZZ=            -84.2223
   XY=             -0.5244   XZ=              0.5970   YZ=              0.9435

 Normal termination of Gaussian 16 at Wed May  5 23:11:58 2021.
