 Gaussian 16, Revision A.03,
 Gaussian 16:  EM64L-G16RevA.03 25-Dec-2016

 -------------
 #p 6-31g* mp2
 -------------

 ------------------------------------------------------
 Input file generated by CHIRIPA (05-May-2021 14:57:25)
 ------------------------------------------------------
 Symbolic Z-matrix:
 Charge =  0 Multiplicity = 1

                         Standard orientation:
 ---------------------------------------------------------------------
 Center     Atomic      Atomic             Coordinates (Angstroms)
 Number     Number       Type             X           Y           Z
 ---------------------------------------------------------------------
      1          6           0        2.437421    2.515177    0.470967
      2          6           0        3.816539    2.298396    0.384012
      3          6           0        4.317393    1.035016    0.056038
      4          6           0        3.406499    0.006430   -0.179701
      5          6           0        2.027001    0.190964   -0.100806
      6          6           0        1.548621    1.462625    0.228707
      7          1           0        2.057075    3.499817    0.726342
      8          1           0        4.509139    3.113962    0.571633
      9          1           0        5.380252    0.839440   -0.018108
     10          1           0        1.361299   -0.641619   -0.293322
     11          1           0        0.477076    1.628072    0.295521
     12          7           0        3.924834   -1.335436   -0.527727
     13          8           0        3.101469   -2.225086   -0.730781
     14          8           0        5.144656   -1.472134   -0.590865
     15          6           0       -1.788124   -1.949790    1.147043
     16          6           0       -2.967960   -2.352030    0.512450
     17          6           0       -3.824820   -1.406504   -0.058793
     18          6           0       -3.469270   -0.061090    0.023277
     19          6           0       -2.300792    0.371032    0.648752
     20          6           0       -1.458885   -0.591936    1.213052
     21          1           0       -1.128302   -2.691071    1.588102
     22          1           0       -3.226197   -3.405869    0.459680
     23          1           0       -4.744406   -1.690235   -0.556061
     24          1           0       -2.070189    1.428809    0.685466
     25          1           0       -0.543257   -0.276650    1.705257
     26          7           0       -4.368475    0.949129   -0.577797
     27          8           0       -4.032590    2.128311   -0.492078
     28          8           0       -5.392129    0.542627   -1.123256
 ---------------------------------------------------------------------

 SCF Done:  E(RHF) =  -868.337205677     A.U. after   16 cycles
 E2 =    -0.2601640571D+01 EUMP2 =    -0.87093884624802D+03

 The electronic state is 1-A.
 Alpha  occ. eigenvalues --  -20.61311 -20.61308 -20.61290 -20.61288 -15.86360
 Alpha  occ. eigenvalues --  -15.86359 -11.31807 -11.31743 -11.28505 -11.28339
 Alpha  occ. eigenvalues --  -11.28315 -11.28306 -11.28052 -11.28041 -11.27419
 Alpha  occ. eigenvalues --  -11.27382 -11.27288 -11.27283  -1.60378  -1.60373
 Alpha  occ. eigenvalues --   -1.39932  -1.39927  -1.19987  -1.19921  -1.09332
 Alpha  occ. eigenvalues --   -1.09306  -1.05499  -1.05269  -0.96162  -0.96135
 Alpha  occ. eigenvalues --   -0.86793  -0.86729  -0.83134  -0.82869  -0.78230
 Alpha  occ. eigenvalues --   -0.77873  -0.72586  -0.72565  -0.71704  -0.71697
 Alpha  occ. eigenvalues --   -0.71055  -0.70997  -0.65702  -0.65644  -0.65352
 Alpha  occ. eigenvalues --   -0.65303  -0.63103  -0.62313  -0.55857  -0.55759
 Alpha  occ. eigenvalues --   -0.53763  -0.53683  -0.53445  -0.53362  -0.49348
 Alpha  occ. eigenvalues --   -0.49333  -0.49328  -0.49317  -0.45334  -0.45316
 Alpha  occ. eigenvalues --   -0.37904  -0.37892  -0.37063  -0.36897
 Alpha virt. eigenvalues --    0.04462   0.04478   0.10515   0.10697   0.15757
 Alpha virt. eigenvalues --    0.15922   0.19455   0.22091   0.24995   0.26967
 Alpha virt. eigenvalues --    0.28270   0.28751   0.30534   0.30924   0.31612

 Mulliken charges:
               1
     1  C   -0.171096
     2  C   -0.218499
     3  C   -0.169683
     4  C    0.159550
     5  C   -0.178140
     6  C   -0.225523
     7  H    0.229606
     8  H    0.226202
     9  H    0.277429
    10  H    0.276613
    11  H    0.223314
    12  N    0.488305
    13  O   -0.462426
    14  O   -0.458145
    15  C   -0.170728
    16  C   -0.217228
    17  C   -0.169257
    18  C    0.160122
    19  C   -0.177816
    20  C   -0.227783
    21  H    0.233846
    22  H    0.228352
    23  H    0.278429
    24  H    0.269562
    25  H    0.225934
    26  N    0.488615
    27  O   -0.462482
    28  O   -0.457075
 Sum of Mulliken charges =  -0.00000

 Dipole moment (field-independent basis, Debye):
    X=              1.3004    Y=              1.0130    Z=              3.3081  Tot=              3.6960
 Quadrupole moment (field-independent basis, Debye-Ang):
   XX=           -131.8773   YY=           -101.1867   ZZ=           -106.2996
   XY=             33.8169   XZ=             -1.3809   YZ=              0.1083

 Normal termination of Gaussian 16 at Thu May  6 06:45:46 2021.
