 Gaussian 16, Revision A.03,
 Gaussian 16:  EM64L-G16RevA.03 25-Dec-2016

 -------------
 #p 6-31g* mp2
 -------------

 ------------------------------------------------------
 Input file generated by CHIRIPA (05-May-2021 14:53:18)
 ------------------------------------------------------
 Symbolic Z-matrix:
 Charge =  0 Multiplicity = 1

                         Standard orientation:
 ---------------------------------------------------------------------
 Center     Atomic      Atomic             Coordinates (Angstroms)
 Number     Number       Type             X           Y           Z
 ---------------------------------------------------------------------
      1          6           0        4.270762   -0.186056   -0.104315
      2          6           0        4.379033    1.130949   -0.873574
      3          6           0        5.826993    1.571774   -1.090092
      4          1           0        4.771862   -0.078035    0.867372
      5          1           0        4.815179   -0.968079   -0.651531
      6          1           0        3.833409    1.909939   -0.325773
      7          1           0        3.877451    1.019840   -1.843463
      8          1           0        6.379423    0.815151   -1.656611
      9          1           0        6.335131    1.710308   -0.130297
     10          1           0        5.881126    2.515385   -1.641932
     11          6           0        2.829428   -0.639882    0.120020
     12          6           0        2.721157   -1.956887    0.889279
     13          6           0        1.273197   -2.397712    1.105797
     14          1           0        2.285011    0.142141    0.667236
     15          1           0        2.328328   -0.747903   -0.851667
     16          1           0        3.222739   -1.845778    1.859168
     17          1           0        3.266781   -2.735877    0.341478
     18          1           0        0.765059   -2.536246    0.146002
     19          1           0        0.720767   -1.641089    1.672316
     20          1           0        1.219064   -3.341323    1.657637
     21          6           0       -2.028120    2.359515    1.282827
     22          6           0       -1.510763    1.100149    1.603544
     23          6           0       -1.916597   -0.035337    0.896071
     24          6           0       -2.845573    0.125713   -0.130747
     25          6           0       -3.379266    1.366933   -0.474023
     26          6           0       -2.959078    2.488660    0.246894
     27          1           0       -1.707283    3.236243    1.837630
     28          1           0       -0.787634    0.996858    2.407573
     29          1           0       -1.532167   -1.022225    1.123414
     30          1           0       -4.098713    1.438341   -1.280692
     31          1           0       -3.362552    3.465449   -0.004375
     32          7           0       -3.282809   -1.069091   -0.886833
     33          8           0       -4.102423   -0.900563   -1.787093
     34          8           0       -2.797622   -2.151484   -0.564876
 ---------------------------------------------------------------------

 SCF Done:  E(RHF) =  -669.535423395     A.U. after   15 cycles
 E2 =    -0.2091679805D+01 EUMP2 =    -0.67162710320036D+03

 The electronic state is 1-A.
 Alpha  occ. eigenvalues --  -20.60738 -20.60732 -15.85786 -11.31120 -11.27718
 Alpha  occ. eigenvalues --  -11.27650 -11.27469 -11.26727 -11.26717 -11.21874
 Alpha  occ. eigenvalues --  -11.21836 -11.21670 -11.21598 -11.21405 -11.21274
 Alpha  occ. eigenvalues --   -1.59810  -1.39364  -1.19308  -1.08712  -1.08691
 Alpha  occ. eigenvalues --   -1.04715  -1.03792  -0.96251  -0.95545  -0.87272
 Alpha  occ. eigenvalues --   -0.86109  -0.82383  -0.79865  -0.78506  -0.77419
 Alpha  occ. eigenvalues --   -0.72006  -0.71132  -0.70429  -0.65326  -0.64964
 Alpha  occ. eigenvalues --   -0.64727  -0.62111  -0.61171  -0.59599  -0.57849
 Alpha  occ. eigenvalues --   -0.55554  -0.55215  -0.53055  -0.52984  -0.52890
 Alpha  occ. eigenvalues --   -0.52503  -0.50193  -0.48765  -0.48756  -0.48159
 Alpha  occ. eigenvalues --   -0.46886  -0.46042  -0.45966  -0.44771  -0.44038
 Alpha  occ. eigenvalues --   -0.37298  -0.36301
 Alpha virt. eigenvalues --    0.05088   0.11320   0.16524   0.20353   0.22696
 Alpha virt. eigenvalues --    0.23948   0.25521   0.26452   0.27275   0.28085
 Alpha virt. eigenvalues --    0.29209   0.30059   0.31572   0.31640   0.32171

 Mulliken charges:
               1
     1  C   -0.298513
     2  C   -0.299443
     3  C   -0.475819
     4  H    0.148754
     5  H    0.151529
     6  H    0.149354
     7  H    0.153686
     8  H    0.156476
     9  H    0.154707
    10  H    0.160378
    11  C   -0.297991
    12  C   -0.300484
    13  C   -0.479311
    14  H    0.143565
    15  H    0.153629
    16  H    0.150554
    17  H    0.155719
    18  H    0.168974
    19  H    0.139562
    20  H    0.164980
    21  C   -0.170451
    22  C   -0.221096
    23  C   -0.174123
    24  C    0.157383
    25  C   -0.170450
    26  C   -0.219034
    27  H    0.225275
    28  H    0.222712
    29  H    0.284266
    30  H    0.275347
    31  H    0.223204
    32  N    0.488073
    33  O   -0.460629
    34  O   -0.460781
 Sum of Mulliken charges =  -0.00000

 Dipole moment (field-independent basis, Debye):
    X=              1.6161    Y=              4.1003    Z=              2.5632  Tot=              5.0985
 Quadrupole moment (field-independent basis, Debye-Ang):
   XX=           -103.1829   YY=            -92.0570   ZZ=            -93.8480
   XY=            -14.5389   XZ=             -5.8543   YZ=             -1.3849

 Normal termination of Gaussian 16 at Thu May  6 04:25:00 2021.
