 Gaussian 16, Revision A.03,
 Gaussian 16:  EM64L-G16RevA.03 25-Dec-2016

 -------------
 #p 6-31g* mp2
 -------------

 ------------------------------------------------------
 Input file generated by CHIRIPA (05-May-2021 14:51:13)
 ------------------------------------------------------
 Symbolic Z-matrix:
 Charge =  0 Multiplicity = 1

                         Standard orientation:
 ---------------------------------------------------------------------
 Center     Atomic      Atomic             Coordinates (Angstroms)
 Number     Number       Type             X           Y           Z
 ---------------------------------------------------------------------
      1          6           0        3.020717   -0.392556   -0.517344
      2          6           0        4.294151   -1.234835   -0.434186
      3          6           0        4.060273   -2.698598   -0.809011
      4          1           0        2.258735   -0.825021    0.145456
      5          1           0        2.616925   -0.450747   -1.537619
      6          1           0        4.696181   -1.173957    0.585266
      7          1           0        5.053253   -0.800204   -1.097116
      8          1           0        3.681162   -2.778215   -1.832992
      9          1           0        3.322062   -3.154092   -0.141051
     10          1           0        4.983627   -3.282452   -0.742744
     11          6           0        3.238427    1.073080   -0.145534
     12          6           0        1.964992    1.915359   -0.228692
     13          6           0        2.198871    3.379122    0.146133
     14          1           0        3.642219    1.131271    0.874741
     15          1           0        4.000408    1.505545   -0.808334
     16          1           0        1.205890    1.480728    0.434238
     17          1           0        1.562962    1.854482   -1.248144
     18          1           0        2.937082    3.834617   -0.521827
     19          1           0        2.577981    3.458739    1.170114
     20          1           0        1.275517    3.962977    0.079866
     21          6           0       -3.586567    0.109705   -0.083430
     22          6           0       -4.836309   -0.605073   -0.598430
     23          6           0       -5.740613    0.308199   -1.426660
     24          1           0       -3.889968    0.974693    0.522118
     25          1           0       -3.022555    0.508714   -0.937875
     26          1           0       -5.397078   -1.003811    0.256649
     27          1           0       -4.529899   -1.468572   -1.202665
     28          1           0       -5.202600    0.695887   -2.297774
     29          1           0       -6.074706    1.163289   -0.830168
     30          1           0       -6.627961   -0.223063   -1.784759
     31          6           0       -2.672576   -0.790229    0.746308
     32          6           0       -1.422835   -0.075452    1.261309
     33          6           0       -0.518530   -0.988722    2.089538
     34          1           0       -3.236588   -1.189238    1.600754
     35          1           0       -2.369175   -1.655218    0.140761
     36          1           0       -1.729245    0.788047    1.865543
     37          1           0       -0.862066    0.323286    0.406228
     38          1           0       -0.184438   -1.843814    1.493047
     39          1           0       -1.056544   -1.376412    2.960652
     40          1           0        0.368817   -0.457460    2.447637
 ---------------------------------------------------------------------

 SCF Done:  E(RHF) =  -470.733054339     A.U. after   11 cycles
 E2 =    -0.1583552125D+01 EUMP2 =    -0.47231660646325D+03

 The electronic state is 1-A.
 Alpha  occ. eigenvalues --  -11.21604 -11.21598 -11.21588 -11.21557 -11.21411
 Alpha  occ. eigenvalues --  -11.21383 -11.21351 -11.21322 -11.21151 -11.21073
 Alpha  occ. eigenvalues --  -11.21067 -11.21055  -1.08459  -1.08400  -1.03571
 Alpha  occ. eigenvalues --   -1.03501  -0.96012  -0.95963  -0.87029  -0.86977
 Alpha  occ. eigenvalues --   -0.79710  -0.79503  -0.78322  -0.78163  -0.65175
 Alpha  occ. eigenvalues --   -0.64963  -0.61015  -0.60870  -0.59437  -0.59272
 Alpha  occ. eigenvalues --   -0.57633  -0.57561  -0.55332  -0.55221  -0.52718
 Alpha  occ. eigenvalues --   -0.52649  -0.52433  -0.52393  -0.50019  -0.49848
 Alpha  occ. eigenvalues --   -0.48090  -0.47811  -0.46822  -0.46440  -0.45966
 Alpha  occ. eigenvalues --   -0.45762  -0.45705  -0.45386  -0.43804  -0.43765
 Alpha virt. eigenvalues --    0.20618   0.23110   0.23883   0.24194   0.26211
 Alpha virt. eigenvalues --    0.26429   0.27052   0.27667   0.27929   0.29987
 Alpha virt. eigenvalues --    0.30036   0.31312   0.31711   0.31821   0.32268

 Mulliken charges:
               1
     1  C   -0.303473
     2  C   -0.299354
     3  C   -0.475743
     4  H    0.155214
     5  H    0.148731
     6  H    0.151978
     7  H    0.151902
     8  H    0.154920
     9  H    0.155137
    10  H    0.160291
    11  C   -0.297305
    12  C   -0.309042
    13  C   -0.475121
    14  H    0.149014
    15  H    0.149539
    16  H    0.162710
    17  H    0.150779
    18  H    0.155032
    19  H    0.154874
    20  H    0.160316
    21  C   -0.298439
    22  C   -0.299674
    23  C   -0.475714
    24  H    0.149597
    25  H    0.149843
    26  H    0.151917
    27  H    0.151999
    28  H    0.155195
    29  H    0.155168
    30  H    0.160268
    31  C   -0.297798
    32  C   -0.305499
    33  C   -0.478098
    34  H    0.149344
    35  H    0.149857
    36  H    0.151706
    37  H    0.158065
    38  H    0.155856
    39  H    0.155839
    40  H    0.160170
 Sum of Mulliken charges =  -0.00000

 Dipole moment (field-independent basis, Debye):
    X=             -0.0226    Y=             -0.0037    Z=              0.0087  Tot=              0.0245
 Quadrupole moment (field-independent basis, Debye-Ang):
   XX=            -85.1623   YY=            -86.1801   ZZ=            -83.5574
   XY=              0.2703   XZ=             -1.0729   YZ=              0.0913

 Normal termination of Gaussian 16 at Thu May  6 07:08:10 2021.
