 Gaussian 16, Revision A.03,
 Gaussian 16:  EM64L-G16RevA.03 25-Dec-2016

 -------------
 #p 6-31g* mp2
 -------------

 ------------------------------------------------------
 Input file generated by CHIRIPA (05-May-2021 14:53:12)
 ------------------------------------------------------
 Symbolic Z-matrix:
 Charge =  0 Multiplicity = 1

                         Standard orientation:
 ---------------------------------------------------------------------
 Center     Atomic      Atomic             Coordinates (Angstroms)
 Number     Number       Type             X           Y           Z
 ---------------------------------------------------------------------
      1          6           0        4.026182   -0.387678   -0.042246
      2          6           0        5.173527   -0.930322   -0.894961
      3          6           0        5.564286   -2.360023   -0.519389
      4          1           0        4.315959   -0.423914    1.016839
      5          1           0        3.154253   -1.047540   -0.150488
      6          1           0        6.042589   -0.268866   -0.786225
      7          1           0        4.881058   -0.892610   -1.952154
      8          1           0        4.713635   -3.037606   -0.645387
      9          1           0        5.881765   -2.410318    0.527166
     10          1           0        6.386226   -2.728095   -1.141320
     11          6           0        3.624134    1.040578   -0.405798
     12          6           0        2.476789    1.583222    0.446917
     13          6           0        2.086030    3.012924    0.071345
     14          1           0        4.496063    1.700441   -0.297556
     15          1           0        3.334357    1.076815   -1.464883
     16          1           0        2.769258    1.545511    1.504109
     17          1           0        1.607727    0.921767    0.338180
     18          1           0        1.768551    3.063218   -0.975211
     19          1           0        2.936681    3.690507    0.197343
     20          1           0        1.264090    3.380996    0.693275
     21          6           0       -4.932827   -0.095389   -1.424876
     22          6           0       -4.634760   -1.313216   -0.804733
     23          6           0       -3.559778   -1.413303    0.083491
     24          6           0       -2.800425   -0.270474    0.329689
     25          6           0       -3.072209    0.957019   -0.272544
     26          6           0       -4.151976    1.033851   -1.157274
     27          1           0       -5.769758   -0.026672   -2.113513
     28          1           0       -5.239457   -2.191838   -1.010667
     29          1           0       -3.306800   -2.343625    0.577378
     30          1           0       -2.451263    1.815585   -0.047357
     31          1           0       -4.381128    1.980937   -1.637439
     32          7           0       -1.659856   -0.364122    1.268163
     33          8           0       -1.006193    0.657309    1.468262
     34          8           0       -1.441138   -1.457181    1.785870
 ---------------------------------------------------------------------

 SCF Done:  E(RHF) =  -669.536037059     A.U. after   15 cycles
 E2 =    -0.2091064794D+01 EUMP2 =    -0.67162710185318D+03

 The electronic state is 1-A.
 Alpha  occ. eigenvalues --  -20.60959 -20.60949 -15.85982 -11.31301 -11.27865
 Alpha  occ. eigenvalues --  -11.27860 -11.27602 -11.26871 -11.26861 -11.20955
 Alpha  occ. eigenvalues --  -11.20543 -11.20497 -11.20461 -11.20289 -11.20137
 Alpha  occ. eigenvalues --   -1.60016  -1.39572  -1.19471  -1.08876  -1.07547
 Alpha  occ. eigenvalues --   -1.04865  -1.02652  -0.95718  -0.95154  -0.86266
 Alpha  occ. eigenvalues --   -0.86180  -0.82551  -0.78715  -0.77609  -0.77305
 Alpha  occ. eigenvalues --   -0.72202  -0.71331  -0.70578  -0.65126  -0.64867
 Alpha  occ. eigenvalues --   -0.64189  -0.62212  -0.60061  -0.58513  -0.56722
 Alpha  occ. eigenvalues --   -0.55370  -0.54473  -0.53199  -0.52956  -0.51858
 Alpha  occ. eigenvalues --   -0.51572  -0.49142  -0.48969  -0.48957  -0.47034
 Alpha  occ. eigenvalues --   -0.45800  -0.45143  -0.44864  -0.44516  -0.42914
 Alpha  occ. eigenvalues --   -0.37449  -0.36467
 Alpha virt. eigenvalues --    0.04891   0.11188   0.16367   0.21273   0.23669
 Alpha virt. eigenvalues --    0.24990   0.27221   0.27515   0.27955   0.28527
 Alpha virt. eigenvalues --    0.28898   0.30869   0.32093   0.32223   0.32687

 Mulliken charges:
               1
     1  C   -0.297566
     2  C   -0.298878
     3  C   -0.475141
     4  H    0.151003
     5  H    0.151849
     6  H    0.150171
     7  H    0.149202
     8  H    0.155196
     9  H    0.155523
    10  H    0.157407
    11  C   -0.298495
    12  C   -0.301181
    13  C   -0.475982
    14  H    0.145430
    15  H    0.144273
    16  H    0.153536
    17  H    0.168266
    18  H    0.147010
    19  H    0.150304
    20  H    0.163729
    21  C   -0.170596
    22  C   -0.218583
    23  C   -0.170859
    24  C    0.157958
    25  C   -0.170976
    26  C   -0.218578
    27  H    0.226042
    28  H    0.223836
    29  H    0.275832
    30  H    0.276184
    31  H    0.224001
    32  N    0.488164
    33  O   -0.459249
    34  O   -0.458832
 Sum of Mulliken charges =  -0.00000

 Dipole moment (field-independent basis, Debye):
    X=             -4.2977    Y=              0.2471    Z=             -3.1676  Tot=              5.3446
 Quadrupole moment (field-independent basis, Debye-Ang):
   XX=            -73.2667   YY=            -91.6608   ZZ=            -97.2299
   XY=              1.7551   XZ=              8.9149   YZ=              0.6903

 Normal termination of Gaussian 16 at Thu May  6 02:32:07 2021.
