 Gaussian 16, Revision A.03,
 Gaussian 16:  EM64L-G16RevA.03 25-Dec-2016

 -------------
 #p 6-31g* mp2
 -------------

 ------------------------------------------------------
 Input file generated by CHIRIPA (05-May-2021 14:57:23)
 ------------------------------------------------------
 Symbolic Z-matrix:
 Charge =  0 Multiplicity = 1

                         Standard orientation:
 ---------------------------------------------------------------------
 Center     Atomic      Atomic             Coordinates (Angstroms)
 Number     Number       Type             X           Y           Z
 ---------------------------------------------------------------------
      1          6           0        4.931286   -1.953075   -0.097337
      2          6           0        3.533801   -1.903934   -0.131117
      3          6           0        2.865632   -0.676213   -0.102841
      4          6           0        3.629759    0.488048   -0.040427
      5          6           0        5.023248    0.471889   -0.005532
      6          6           0        5.670247   -0.767097   -0.034762
      7          1           0        5.442113   -2.911173   -0.119673
      8          1           0        2.957336   -2.823375   -0.179720
      9          1           0        1.784751   -0.609228   -0.127900
     10          1           0        5.570724    1.405349    0.042850
     11          1           0        6.755658   -0.802227   -0.008413
     12          7           0        2.933605    1.793744   -0.009988
     13          8           0        3.629744    2.805177    0.045057
     14          8           0        1.705002    1.780991   -0.041750
     15          6           0       -1.446539   -1.238287    0.436930
     16          6           0       -2.224811   -0.821429    1.521846
     17          6           0       -3.499468   -0.285020    1.316757
     18          6           0       -3.966652   -0.179518    0.007596
     19          6           0       -3.215219   -0.585992   -1.093956
     20          6           0       -1.943351   -1.119448   -0.865212
     21          1           0       -0.457438   -1.653836    0.605437
     22          1           0       -1.841552   -0.912528    2.534199
     23          1           0       -4.123139    0.045511    2.138463
     24          1           0       -3.624366   -0.482606   -2.091617
     25          1           0       -1.341152   -1.442367   -1.709679
     26          7           0       -5.314598    0.386791   -0.222044
     27          8           0       -5.703312    0.469122   -1.385126
     28          8           0       -5.956881    0.737611    0.765395
 ---------------------------------------------------------------------

 SCF Done:  E(RHF) =  -868.336601215     A.U. after   16 cycles
 E2 =    -0.2600006172D+01 EUMP2 =    -0.87093660738695D+03

 The electronic state is 1-A.
 Alpha  occ. eigenvalues --  -20.61377 -20.61366 -20.60585 -20.60579 -15.86431
 Alpha  occ. eigenvalues --  -15.85639 -11.31931 -11.31052 -11.28603 -11.28446
 Alpha  occ. eigenvalues --  -11.28225 -11.27618 -11.27601 -11.27599 -11.27523
 Alpha  occ. eigenvalues --  -11.27473 -11.26732 -11.26678  -1.60448  -1.59656
 Alpha  occ. eigenvalues --   -1.39999  -1.39209  -1.20103  -1.19232  -1.09460
 Alpha  occ. eigenvalues --   -1.08653  -1.05540  -1.04640  -0.96283  -0.95480
 Alpha  occ. eigenvalues --   -0.86921  -0.86060  -0.83120  -0.82306  -0.78162
 Alpha  occ. eigenvalues --   -0.77314  -0.72643  -0.71863  -0.71777  -0.71238
 Alpha  occ. eigenvalues --   -0.70974  -0.70428  -0.65754  -0.65542  -0.64912
 Alpha  occ. eigenvalues --   -0.64676  -0.62902  -0.61992  -0.56014  -0.55266
 Alpha  occ. eigenvalues --   -0.53838  -0.53622  -0.52938  -0.52762  -0.49412
 Alpha  occ. eigenvalues --   -0.49395  -0.48625  -0.48609  -0.45376  -0.44604
 Alpha  occ. eigenvalues --   -0.38059  -0.37233  -0.37146  -0.36205
 Alpha virt. eigenvalues --    0.04389   0.05185   0.10507   0.11417   0.15870
 Alpha virt. eigenvalues --    0.16522   0.18789   0.21991   0.25187   0.27174
 Alpha virt. eigenvalues --    0.27450   0.29591   0.30473   0.31114   0.32306

 Mulliken charges:
               1
     1  C   -0.170420
     2  C   -0.219114
     3  C   -0.177703
     4  C    0.159858
     5  C   -0.169651
     6  C   -0.218110
     7  H    0.227766
     8  H    0.219885
     9  H    0.271865
    10  H    0.278143
    11  H    0.226308
    12  N    0.487253
    13  O   -0.457303
    14  O   -0.460153
    15  C   -0.166159
    16  C   -0.215320
    17  C   -0.169834
    18  C    0.160002
    19  C   -0.169368
    20  C   -0.214788
    21  H    0.212963
    22  H    0.223734
    23  H    0.276235
    24  H    0.276040
    25  H    0.219942
    26  N    0.488099
    27  O   -0.460193
    28  O   -0.459975
 Sum of Mulliken charges =  -0.00000

 Dipole moment (field-independent basis, Debye):
    X=              7.2929    Y=             -6.4378    Z=              0.7188  Tot=              9.7544
 Quadrupole moment (field-independent basis, Debye-Ang):
   XX=           -119.8840   YY=           -108.8018   ZZ=           -100.7429
   XY=             -6.3168   XZ=             -4.1987   YZ=              0.8075

 Normal termination of Gaussian 16 at Fri May  7 06:27:55 2021.
