 Gaussian 16, Revision A.03,
 Gaussian 16:  EM64L-G16RevA.03 25-Dec-2016

 -------------
 #p 6-31g* mp2
 -------------

 ------------------------------------------------------
 Input file generated by CHIRIPA (05-May-2021 14:51:08)
 ------------------------------------------------------
 Symbolic Z-matrix:
 Charge =  0 Multiplicity = 1

                         Standard orientation:
 ---------------------------------------------------------------------
 Center     Atomic      Atomic             Coordinates (Angstroms)
 Number     Number       Type             X           Y           Z
 ---------------------------------------------------------------------
      1          6           0       -3.240702    0.099812    0.557859
      2          6           0       -3.964214   -1.010436   -0.204941
      3          6           0       -4.504559   -2.105026    0.715763
      4          1           0       -2.413897   -0.338272    1.133551
      5          1           0       -3.930891    0.542387    1.289407
      6          1           0       -3.273281   -1.449856   -0.935789
      7          1           0       -4.789274   -0.569633   -0.779034
      8          1           0       -5.214453   -1.686466    1.436497
      9          1           0       -3.689847   -2.571691    1.278852
     10          1           0       -5.017991   -2.888495    0.149703
     11          6           0       -2.694840    1.201420   -0.348905
     12          6           0       -1.971328    2.311669    0.413895
     13          6           0       -1.430984    3.406258   -0.506809
     14          1           0       -2.004652    0.758845   -1.080453
     15          1           0       -3.521646    1.639504   -0.924597
     16          1           0       -1.146268    1.870865    0.987988
     17          1           0       -2.662261    2.751088    1.144743
     18          1           0       -2.245695    3.872923   -1.069898
     19          1           0       -0.721089    2.987698   -1.227543
     20          1           0       -0.917551    4.189727    0.059251
     21          6           0        2.218415   -0.572036   -0.229864
     22          6           0        1.504760   -1.899018   -0.490255
     23          6           0        0.006225   -1.725392   -0.739342
     24          1           0        1.756186   -0.078112    0.635774
     25          1           0        2.063485    0.094488   -1.089595
     26          1           0        1.662147   -2.563345    0.369113
     27          1           0        1.968865   -2.389929   -1.355256
     28          1           0       -0.167916   -1.083628   -1.609063
     29          1           0       -0.476377   -1.258029    0.125105
     30          1           0       -0.484180   -2.686408   -0.923219
     31          6           0        3.717128   -0.729196    0.020910
     32          6           0        4.430783    0.597785    0.281300
     33          6           0        5.929317    0.424160    0.530387
     34          1           0        3.872057   -1.395720    0.880641
     35          1           0        4.179355   -1.223120   -0.844728
     36          1           0        3.966677    1.088697    1.146303
     37          1           0        4.273395    1.262113   -0.578068
     38          1           0        6.411919   -0.043203   -0.334058
     39          1           0        6.103459   -0.217604    1.400109
     40          1           0        6.419723    1.385176    0.714264
 ---------------------------------------------------------------------

 SCF Done:  E(RHF) =  -470.732680796     A.U. after   11 cycles
 E2 =    -0.1584229604D+01 EUMP2 =    -0.47231691040007D+03

 The electronic state is 1-A.
 Alpha  occ. eigenvalues --  -11.21684 -11.21638 -11.21545 -11.21494 -11.21478
 Alpha  occ. eigenvalues --  -11.21412 -11.21308 -11.21237 -11.21164 -11.21099
 Alpha  occ. eigenvalues --  -11.21026 -11.21005  -1.08505  -1.08344  -1.03600
 Alpha  occ. eigenvalues --   -1.03454  -0.96072  -0.95894  -0.87082  -0.86921
 Alpha  occ. eigenvalues --   -0.79673  -0.79519  -0.78312  -0.78168  -0.65185
 Alpha  occ. eigenvalues --   -0.64967  -0.61032  -0.60831  -0.59413  -0.59275
 Alpha  occ. eigenvalues --   -0.57679  -0.57520  -0.55415  -0.55150  -0.52752
 Alpha  occ. eigenvalues --   -0.52607  -0.52489  -0.52282  -0.50117  -0.49746
 Alpha  occ. eigenvalues --   -0.47997  -0.47838  -0.46752  -0.46539  -0.45966
 Alpha  occ. eigenvalues --   -0.45847  -0.45528  -0.45469  -0.43842  -0.43705
 Alpha virt. eigenvalues --    0.20349   0.22897   0.23897   0.24772   0.24871
 Alpha virt. eigenvalues --    0.26000   0.27317   0.27714   0.28044   0.30075
 Alpha virt. eigenvalues --    0.30588   0.31222   0.31320   0.31839   0.32105

 Mulliken charges:
               1
     1  C   -0.300008
     2  C   -0.302645
     3  C   -0.475703
     4  H    0.150131
     5  H    0.149569
     6  H    0.156833
     7  H    0.151437
     8  H    0.154805
     9  H    0.154945
    10  H    0.159832
    11  C   -0.302369
    12  C   -0.299670
    13  C   -0.475458
    14  H    0.154877
    15  H    0.149151
    16  H    0.151267
    17  H    0.151622
    18  H    0.154957
    19  H    0.155034
    20  H    0.159995
    21  C   -0.298740
    22  C   -0.300564
    23  C   -0.481919
    24  H    0.149555
    25  H    0.149375
    26  H    0.152168
    27  H    0.152293
    28  H    0.156149
    29  H    0.161408
    30  H    0.160764
    31  C   -0.298322
    32  C   -0.299720
    33  C   -0.475765
    34  H    0.149702
    35  H    0.149898
    36  H    0.152074
    37  H    0.152116
    38  H    0.155236
    39  H    0.155231
    40  H    0.160460
 Sum of Mulliken charges =  -0.00000

 Dipole moment (field-independent basis, Debye):
    X=              0.0434    Y=             -0.0270    Z=             -0.0235  Tot=              0.0563
 Quadrupole moment (field-independent basis, Debye-Ang):
   XX=            -85.4851   YY=            -85.3313   ZZ=            -84.0916
   XY=             -0.8397   XZ=             -0.1718   YZ=              0.4118

 Normal termination of Gaussian 16 at Wed May  5 15:04:17 2021.
