 Gaussian 16, Revision A.03,
 Gaussian 16:  EM64L-G16RevA.03 25-Dec-2016

 -------------
 #p 6-31g* mp2
 -------------

 ------------------------------------------------------
 Input file generated by CHIRIPA (05-May-2021 14:51:13)
 ------------------------------------------------------
 Symbolic Z-matrix:
 Charge =  0 Multiplicity = 1

                         Standard orientation:
 ---------------------------------------------------------------------
 Center     Atomic      Atomic             Coordinates (Angstroms)
 Number     Number       Type             X           Y           Z
 ---------------------------------------------------------------------
      1          6           0        3.141787    1.365917   -0.208055
      2          6           0        1.938408    2.107291    0.375235
      3          6           0        1.959239    3.604343    0.065080
      4          1           0        4.065278    1.810869    0.187074
      5          1           0        3.163515    1.515562   -1.296415
      6          1           0        1.918170    1.955149    1.462000
      7          1           0        1.017670    1.660399   -0.021180
      8          1           0        1.955561    3.773763   -1.016532
      9          1           0        2.861178    4.070188    0.475075
     10          1           0        1.090005    4.114788    0.491388
     11          6           0        3.135143   -0.131647    0.093588
     12          6           0        4.338523   -0.873022   -0.489701
     13          6           0        4.317692   -2.370073   -0.179547
     14          1           0        3.113415   -0.281292    1.181949
     15          1           0        2.211652   -0.576599   -0.301540
     16          1           0        5.259261   -0.426129   -0.093287
     17          1           0        4.358761   -0.720879   -1.576467
     18          1           0        3.415753   -2.835918   -0.589541
     19          1           0        4.321369   -2.539493    0.902065
     20          1           0        5.186926   -2.880518   -0.605855
     21          6           0       -2.523192   -0.766741    0.484419
     22          6           0       -1.518275   -1.691902   -0.202752
     23          6           0       -0.292801   -1.981875    0.664383
     24          1           0       -2.024680    0.177062    0.744548
     25          1           0       -2.842738   -1.222866    1.431644
     26          1           0       -1.201767   -1.234810   -1.149063
     27          1           0       -2.019288   -2.633540   -0.461446
     28          1           0       -0.589716   -2.460365    1.603261
     29          1           0        0.232448   -1.053688    0.911736
     30          1           0        0.412440   -2.645063    0.153820
     31          6           0       -3.753739   -0.467529   -0.369953
     32          6           0       -4.758655    0.457632    0.317218
     33          6           0       -5.984130    0.747605   -0.549916
     34          1           0       -3.434193   -0.011404   -1.317177
     35          1           0       -4.252251   -1.411332   -0.630081
     36          1           0       -4.257643    1.399269    0.575912
     37          1           0       -5.075164    0.000540    1.263530
     38          1           0       -6.509379   -0.180582   -0.797269
     39          1           0       -5.687214    1.226094   -1.488794
     40          1           0       -6.689370    1.410793   -0.039353
 ---------------------------------------------------------------------

 SCF Done:  E(RHF) =  -470.732685920     A.U. after   11 cycles
 E2 =    -0.1583559257D+01 EUMP2 =    -0.47231624517747D+03

 The electronic state is 1-A.
 Alpha  occ. eigenvalues --  -11.21665 -11.21603 -11.21602 -11.21570 -11.21407
 Alpha  occ. eigenvalues --  -11.21387 -11.21348 -11.21273 -11.21118 -11.21073
 Alpha  occ. eigenvalues --  -11.21050 -11.20982  -1.08453  -1.08407  -1.03545
 Alpha  occ. eigenvalues --   -1.03518  -0.96014  -0.95940  -0.87035  -0.86956
 Alpha  occ. eigenvalues --   -0.79646  -0.79565  -0.78310  -0.78167  -0.65164
 Alpha  occ. eigenvalues --   -0.64971  -0.60953  -0.60922  -0.59424  -0.59266
 Alpha  occ. eigenvalues --   -0.57656  -0.57532  -0.55393  -0.55152  -0.52716
 Alpha  occ. eigenvalues --   -0.52658  -0.52465  -0.52322  -0.50037  -0.49831
 Alpha  occ. eigenvalues --   -0.47943  -0.47886  -0.46742  -0.46634  -0.45901
 Alpha  occ. eigenvalues --   -0.45741  -0.45713  -0.45371  -0.43785  -0.43753
 Alpha virt. eigenvalues --    0.20705   0.22926   0.23635   0.24002   0.26003
 Alpha virt. eigenvalues --    0.26548   0.27036   0.27373   0.27564   0.29833
 Alpha virt. eigenvalues --    0.30390   0.31222   0.31782   0.31826   0.32267

 Mulliken charges:
               1
     1  C   -0.297798
     2  C   -0.301804
     3  C   -0.475603
     4  H    0.149577
     5  H    0.149152
     6  H    0.152198
     7  H    0.151934
     8  H    0.155285
     9  H    0.155649
    10  H    0.160151
    11  C   -0.304443
    12  C   -0.299394
    13  C   -0.476417
    14  H    0.149158
    15  H    0.158924
    16  H    0.151592
    17  H    0.151435
    18  H    0.155535
    19  H    0.155608
    20  H    0.160062
    21  C   -0.299143
    22  C   -0.300511
    23  C   -0.482162
    24  H    0.150354
    25  H    0.149774
    26  H    0.150798
    27  H    0.152081
    28  H    0.155008
    29  H    0.162796
    30  H    0.160235
    31  C   -0.298197
    32  C   -0.299662
    33  C   -0.475704
    34  H    0.149282
    35  H    0.149704
    36  H    0.151972
    37  H    0.151974
    38  H    0.155180
    39  H    0.155145
    40  H    0.160277
 Sum of Mulliken charges =  -0.00000

 Dipole moment (field-independent basis, Debye):
    X=              0.0099    Y=              0.0034    Z=              0.0163  Tot=              0.0194
 Quadrupole moment (field-independent basis, Debye-Ang):
   XX=            -85.2733   YY=            -85.4290   ZZ=            -84.1576
   XY=              0.9016   XZ=             -0.2195   YZ=              0.1147

 Normal termination of Gaussian 16 at Wed May  5 18:21:08 2021.
