 Gaussian 16, Revision A.03,
 Gaussian 16:  EM64L-G16RevA.03 25-Dec-2016

 -------------
 #p 6-31g* mp2
 -------------

 ------------------------------------------------------
 Input file generated by CHIRIPA (05-May-2021 14:53:14)
 ------------------------------------------------------
 Symbolic Z-matrix:
 Charge =  0 Multiplicity = 1

                         Standard orientation:
 ---------------------------------------------------------------------
 Center     Atomic      Atomic             Coordinates (Angstroms)
 Number     Number       Type             X           Y           Z
 ---------------------------------------------------------------------
      1          6           0       -3.354496   -0.261176    0.338073
      2          6           0       -2.072704   -0.214238   -0.494267
      3          6           0       -0.832257   -0.608979    0.307770
      4          1           0       -3.247181    0.407658    1.202995
      5          1           0       -3.484698   -1.275039    0.741216
      6          1           0       -1.945686    0.798877   -0.896859
      7          1           0       -2.183157   -0.883115   -1.357413
      8          1           0       -0.933056   -1.627333    0.696867
      9          1           0       -0.694236    0.064216    1.160037
     10          1           0        0.072652   -0.568534   -0.306530
     11          6           0       -4.603174    0.130865   -0.449859
     12          6           0       -5.884966    0.083927    0.382482
     13          6           0       -7.125413    0.478668   -0.419555
     14          1           0       -4.472971    1.144728   -0.853002
     15          1           0       -4.710489   -0.537969   -1.314781
     16          1           0       -5.774513    0.752804    1.245627
     17          1           0       -6.011984   -0.929188    0.785074
     18          1           0       -7.263434   -0.194527   -1.271822
     19          1           0       -7.024614    1.497022   -0.808652
     20          1           0       -8.030322    0.438223    0.194745
     21          6           0        3.302807    2.566351    0.069674
     22          6           0        3.856820    1.832322   -0.984267
     23          6           0        3.755163    0.438191   -1.009050
     24          6           0        3.089676   -0.192281    0.041152
     25          6           0        2.527251    0.511200    1.105145
     26          6           0        2.640958    1.904614    1.109183
     27          1           0        3.386457    3.649067    0.080868
     28          1           0        4.371383    2.343568   -1.792906
     29          1           0        4.174843   -0.154644   -1.812687
     30          1           0        2.020224   -0.026536    1.897094
     31          1           0        2.209737    2.472095    1.928975
     32          7           0        2.975678   -1.667806    0.025896
     33          8           0        2.384391   -2.199529    0.963065
     34          8           0        3.479772   -2.264659   -0.922941
 ---------------------------------------------------------------------

 SCF Done:  E(RHF) =  -669.534713518     A.U. after   15 cycles
 E2 =    -0.2092767296D+01 EUMP2 =    -0.67162748081431D+03

 The electronic state is 1-A.
 Alpha  occ. eigenvalues --  -20.60785 -20.60761 -15.85807 -11.31141 -11.27759
 Alpha  occ. eigenvalues --  -11.27721 -11.27501 -11.26745 -11.26731 -11.21544
 Alpha  occ. eigenvalues --  -11.21424 -11.21314 -11.21244 -11.21032 -11.20796
 Alpha  occ. eigenvalues --   -1.59841  -1.39394  -1.19350  -1.08747  -1.08324
 Alpha  occ. eigenvalues --   -1.04750  -1.03407  -0.95867  -0.95571  -0.86894
 Alpha  occ. eigenvalues --   -0.86133  -0.82411  -0.79485  -0.78143  -0.77447
 Alpha  occ. eigenvalues --   -0.72035  -0.71176  -0.70461  -0.65003  -0.64956
 Alpha  occ. eigenvalues --   -0.64748  -0.62102  -0.60801  -0.59246  -0.57478
 Alpha  occ. eigenvalues --   -0.55282  -0.55132  -0.53242  -0.52858  -0.52386
 Alpha  occ. eigenvalues --   -0.52260  -0.49786  -0.48794  -0.48787  -0.47790
 Alpha  occ. eigenvalues --   -0.46508  -0.45685  -0.45607  -0.44813  -0.43628
 Alpha  occ. eigenvalues --   -0.37307  -0.36307
 Alpha virt. eigenvalues --    0.05039   0.11299   0.16519   0.21264   0.22962
 Alpha virt. eigenvalues --    0.24364   0.26355   0.26936   0.27659   0.27827
 Alpha virt. eigenvalues --    0.28717   0.30768   0.31415   0.31726   0.31888

 Mulliken charges:
               1
     1  C   -0.298418
     2  C   -0.300905
     3  C   -0.472356
     4  H    0.146720
     5  H    0.151860
     6  H    0.148158
     7  H    0.154238
     8  H    0.167264
     9  H    0.143322
    10  H    0.157713
    11  C   -0.298014
    12  C   -0.299515
    13  C   -0.475610
    14  H    0.147851
    15  H    0.150607
    16  H    0.150762
    17  H    0.152909
    18  H    0.155681
    19  H    0.154281
    20  H    0.160059
    21  C   -0.170336
    22  C   -0.219041
    23  C   -0.171711
    24  C    0.154164
    25  C   -0.165489
    26  C   -0.219456
    27  H    0.225487
    28  H    0.223240
    29  H    0.275601
    30  H    0.277049
    31  H    0.223046
    32  N    0.490205
    33  O   -0.458762
    34  O   -0.460603
 Sum of Mulliken charges =  -0.00000

 Dipole moment (field-independent basis, Debye):
    X=              0.4401    Y=              5.0980    Z=              0.0699  Tot=              5.1174
 Quadrupole moment (field-independent basis, Debye-Ang):
   XX=            -92.8582   YY=            -96.3851   ZZ=            -91.4056
   XY=             16.6810   XZ=             -2.6956   YZ=              0.6964

 Normal termination of Gaussian 16 at Thu May  6 02:39:11 2021.
