 Gaussian 16, Revision A.03,
 Gaussian 16:  EM64L-G16RevA.03 25-Dec-2016

 -------------
 #p 6-31g* mp2
 -------------

 ------------------------------------------------------
 Input file generated by CHIRIPA (05-May-2021 14:51:08)
 ------------------------------------------------------
 Symbolic Z-matrix:
 Charge =  0 Multiplicity = 1

                         Standard orientation:
 ---------------------------------------------------------------------
 Center     Atomic      Atomic             Coordinates (Angstroms)
 Number     Number       Type             X           Y           Z
 ---------------------------------------------------------------------
      1          6           0        3.362512   -0.436745    0.434977
      2          6           0        2.932705   -1.642134   -0.401856
      3          6           0        2.826683   -2.925980    0.421730
      4          1           0        4.330951   -0.652478    0.906709
      5          1           0        2.642420   -0.290911    1.252041
      6          1           0        3.652636   -1.784811   -1.217919
      7          1           0        1.965269   -1.423432   -0.871804
      8          1           0        2.093957   -2.807952    1.226581
      9          1           0        3.790913   -3.171384    0.878500
     10          1           0        2.518105   -3.775002   -0.196171
     11          6           0        3.472984    0.854200   -0.374334
     12          6           0        3.902791    2.059589    0.462499
     13          6           0        4.008814    3.343435   -0.361087
     14          1           0        4.193076    0.708366   -1.191398
     15          1           0        2.504545    1.069933   -0.846066
     16          1           0        4.870228    1.840887    0.932447
     17          1           0        3.182860    2.202266    1.278562
     18          1           0        3.044584    3.588839   -0.817857
     19          1           0        4.741539    3.225407   -1.165938
     20          1           0        4.317391    4.192456    0.256814
     21          6           0       -3.056357   -0.796035   -0.358802
     22          6           0       -1.697365   -1.101245    0.272048
     23          6           0       -0.986603   -2.278707   -0.395931
     24          1           0       -3.690673   -1.691007   -0.298700
     25          1           0       -2.917033   -0.582873   -1.427701
     26          1           0       -1.839045   -1.312410    1.339734
     27          1           0       -1.066278   -0.205382    0.210610
     28          1           0       -0.816199   -2.073696   -1.457784
     29          1           0       -1.593357   -3.187014   -0.322245
     30          1           0       -0.017158   -2.479531    0.070659
     31          6           0       -3.779139    0.378580    0.298158
     32          6           0       -5.138131    0.683790   -0.332691
     33          6           0       -5.848893    1.861252    0.335288
     34          1           0       -3.918463    0.165419    1.367059
     35          1           0       -3.144823    1.273552    0.238058
     36          1           0       -5.769218   -0.212072   -0.271253
     37          1           0       -4.996452    0.894956   -1.400377
     38          1           0       -5.242139    2.769560    0.261603
     39          1           0       -6.019297    1.656241    1.397142
     40          1           0       -6.818337    2.062076   -0.131302
 ---------------------------------------------------------------------

 SCF Done:  E(RHF) =  -470.732499292     A.U. after   11 cycles
 E2 =    -0.1583459087D+01 EUMP2 =    -0.47231595837873D+03

 The electronic state is 1-A.
 Alpha  occ. eigenvalues --  -11.21637 -11.21617 -11.21605 -11.21545 -11.21426
 Alpha  occ. eigenvalues --  -11.21402 -11.21366 -11.21341 -11.21087 -11.21085
 Alpha  occ. eigenvalues --  -11.21079 -11.21005  -1.08464  -1.08417  -1.03604
 Alpha  occ. eigenvalues --   -1.03482  -0.96073  -0.95915  -0.87054  -0.86964
 Alpha  occ. eigenvalues --   -0.79626  -0.79580  -0.78267  -0.78235  -0.65152
 Alpha  occ. eigenvalues --   -0.65031  -0.61168  -0.60900  -0.59430  -0.59201
 Alpha  occ. eigenvalues --   -0.57644  -0.57543  -0.55334  -0.55252  -0.52721
 Alpha  occ. eigenvalues --   -0.52572  -0.52428  -0.52365  -0.50004  -0.49871
 Alpha  occ. eigenvalues --   -0.47958  -0.47853  -0.46721  -0.46549  -0.45813
 Alpha  occ. eigenvalues --   -0.45766  -0.45738  -0.45691  -0.43786  -0.43763
 Alpha virt. eigenvalues --    0.20818   0.23168   0.23641   0.25096   0.26187
 Alpha virt. eigenvalues --    0.26749   0.27172   0.27261   0.27870   0.29003
 Alpha virt. eigenvalues --    0.30957   0.31284   0.31702   0.32032   0.32184

 Mulliken charges:
               1
     1  C   -0.297991
     2  C   -0.305642
     3  C   -0.479672
     4  H    0.149599
     5  H    0.149385
     6  H    0.152084
     7  H    0.158561
     8  H    0.154512
     9  H    0.156851
    10  H    0.161686
    11  C   -0.298213
    12  C   -0.299683
    13  C   -0.475666
    14  H    0.149591
    15  H    0.149170
    16  H    0.152026
    17  H    0.151979
    18  H    0.154955
    19  H    0.155208
    20  H    0.160298
    21  C   -0.298367
    22  C   -0.299990
    23  C   -0.485401
    24  H    0.149941
    25  H    0.149566
    26  H    0.151771
    27  H    0.150973
    28  H    0.154327
    29  H    0.155148
    30  H    0.173012
    31  C   -0.298224
    32  C   -0.299665
    33  C   -0.475713
    34  H    0.149530
    35  H    0.149401
    36  H    0.152020
    37  H    0.151953
    38  H    0.155151
    39  H    0.155200
    40  H    0.160327
 Sum of Mulliken charges =  -0.00000

 Dipole moment (field-independent basis, Debye):
    X=              0.0105    Y=             -0.0239    Z=             -0.0026  Tot=              0.0262
 Quadrupole moment (field-independent basis, Debye-Ang):
   XX=            -84.0646   YY=            -85.9856   ZZ=            -84.6872
   XY=              0.4539   XZ=             -0.2257   YZ=             -0.2400

 Normal termination of Gaussian 16 at Thu May  6 13:13:10 2021.
