 Gaussian 16, Revision A.03,
 Gaussian 16:  EM64L-G16RevA.03 25-Dec-2016

 -------------
 #p 6-31g* mp2
 -------------

 ------------------------------------------------------
 Input file generated by CHIRIPA (05-May-2021 14:57:24)
 ------------------------------------------------------
 Symbolic Z-matrix:
 Charge =  0 Multiplicity = 1

                         Standard orientation:
 ---------------------------------------------------------------------
 Center     Atomic      Atomic             Coordinates (Angstroms)
 Number     Number       Type             X           Y           Z
 ---------------------------------------------------------------------
      1          6           0        2.995244    2.628958    0.109845
      2          6           0        4.112888    2.116854    0.777035
      3          6           0        4.441591    0.761838    0.674888
      4          6           0        3.627046   -0.056244   -0.106488
      5          6           0        2.506990    0.424120   -0.783255
      6          6           0        2.197269    1.782449   -0.666801
      7          1           0        2.747272    3.682854    0.194752
      8          1           0        4.734409    2.771922    1.380890
      9          1           0        5.301080    0.339037    1.180790
     10          1           0        1.906433   -0.253557   -1.377816
     11          1           0        1.328689    2.177395   -1.186062
     12          7           0        3.964982   -1.492493   -0.222199
     13          8           0        3.231321   -2.192395   -0.916833
     14          8           0        4.957118   -1.891128    0.383931
     15          6           0       -6.015537    0.395934   -0.156784
     16          6           0       -5.515994   -0.026035    1.079711
     17          6           0       -4.163476   -0.348007    1.226600
     18          6           0       -3.335056   -0.236191    0.111025
     19          6           0       -3.802799    0.181293   -1.134050
     20          6           0       -5.158856    0.498071   -1.257776
     21          1           0       -7.067581    0.644032   -0.261894
     22          1           0       -6.178982   -0.106286    1.936480
     23          1           0       -3.750307   -0.677270    2.172272
     24          1           0       -3.117426    0.251492   -1.969965
     25          1           0       -5.544037    0.825507   -2.219269
     26          7           0       -1.901332   -0.574300    0.254271
     27          8           0       -1.192155   -0.467517   -0.743879
     28          8           0       -1.513904   -0.939688    1.361983
 ---------------------------------------------------------------------

 SCF Done:  E(RHF) =  -868.338834620     A.U. after   16 cycles
 E2 =    -0.2598956838D+01 EUMP2 =    -0.87093779145785D+03

 The electronic state is 1-A.
 Alpha  occ. eigenvalues --  -20.61260 -20.61216 -20.59624 -20.59587 -15.86281
 Alpha  occ. eigenvalues --  -15.84659 -11.31552 -11.29939 -11.28124 -11.28087
 Alpha  occ. eigenvalues --  -11.27825 -11.27105 -11.27082 -11.26629 -11.26396
 Alpha  occ. eigenvalues --  -11.26389 -11.25657 -11.25508  -1.60295  -1.58683
 Alpha  occ. eigenvalues --   -1.39856  -1.38236  -1.19711  -1.18149  -1.09122
 Alpha  occ. eigenvalues --   -1.07588  -1.05101  -1.03532  -0.95974  -0.94416
 Alpha  occ. eigenvalues --   -0.86502  -0.84957  -0.82813  -0.81243  -0.77871
 Alpha  occ. eigenvalues --   -0.76272  -0.72511  -0.71607  -0.70890  -0.70817
 Alpha  occ. eigenvalues --   -0.69997  -0.69297  -0.65368  -0.65100  -0.63816
 Alpha  occ. eigenvalues --   -0.63570  -0.62449  -0.60864  -0.55600  -0.54128
 Alpha  occ. eigenvalues --   -0.53435  -0.53190  -0.51889  -0.51643  -0.49257
 Alpha  occ. eigenvalues --   -0.49227  -0.47654  -0.47625  -0.45281  -0.43659
 Alpha  occ. eigenvalues --   -0.37685  -0.36701  -0.36188  -0.35111
 Alpha virt. eigenvalues --    0.04653   0.06257   0.10955   0.12519   0.16163
 Alpha virt. eigenvalues --    0.17719   0.21100   0.22519   0.27022   0.27894
 Alpha virt. eigenvalues --    0.28489   0.29429   0.30701   0.32001   0.32231

 Mulliken charges:
               1
     1  C   -0.171430
     2  C   -0.219786
     3  C   -0.171407
     4  C    0.156446
     5  C   -0.161838
     6  C   -0.219355
     7  H    0.219836
     8  H    0.218282
     9  H    0.271945
    10  H    0.288283
    11  H    0.221820
    12  N    0.488419
    13  O   -0.457236
    14  O   -0.466086
    15  C   -0.170445
    16  C   -0.218512
    17  C   -0.170504
    18  C    0.158147
    19  C   -0.171371
    20  C   -0.218468
    21  H    0.226771
    22  H    0.224819
    23  H    0.276989
    24  H    0.273679
    25  H    0.224081
    26  N    0.490306
    27  O   -0.469099
    28  O   -0.454284
 Sum of Mulliken charges =  -0.00000

 Dipole moment (field-independent basis, Debye):
    X=             -6.6793    Y=              6.0784    Z=             -0.1102  Tot=              9.0318
 Quadrupole moment (field-independent basis, Debye-Ang):
   XX=            -78.2494   YY=           -107.6099   ZZ=            -99.0972
   XY=             16.0834   XZ=              4.2199   YZ=             -1.1451

 Normal termination of Gaussian 16 at Thu May  6 08:13:48 2021.
