 Gaussian 16, Revision A.03,
 Gaussian 16:  EM64L-G16RevA.03 25-Dec-2016

 -------------
 #p 6-31g* mp2
 -------------

 ------------------------------------------------------
 Input file generated by CHIRIPA (05-May-2021 14:53:18)
 ------------------------------------------------------
 Symbolic Z-matrix:
 Charge =  0 Multiplicity = 1

                         Standard orientation:
 ---------------------------------------------------------------------
 Center     Atomic      Atomic             Coordinates (Angstroms)
 Number     Number       Type             X           Y           Z
 ---------------------------------------------------------------------
      1          6           0       -5.755743   -0.318700    0.376610
      2          6           0       -6.985054   -0.412374   -0.527827
      3          6           0       -8.133947   -1.190037    0.114886
      4          1           0       -5.417243   -1.332506    0.630695
      5          1           0       -6.040988    0.161886    1.322690
      6          1           0       -6.697269   -0.891390   -1.472464
      7          1           0       -7.320552    0.601773   -0.779945
      8          1           0       -8.449162   -0.711000    1.047497
      9          1           0       -7.822336   -2.212646    0.351043
     10          1           0       -9.002481   -1.244760   -0.548825
     11          6           0       -4.598735    0.455820   -0.252023
     12          6           0       -3.369425    0.549493    0.652414
     13          6           0       -2.220532    1.327156    0.009701
     14          1           0       -4.313490   -0.024766   -1.198103
     15          1           0       -4.937236    1.469626   -0.506109
     16          1           0       -3.033926   -0.464653    0.904532
     17          1           0       -3.657210    1.028509    1.597051
     18          1           0       -2.532143    2.349766   -0.226457
     19          1           0       -1.905317    0.848119   -0.922910
     20          1           0       -1.351997    1.381880    0.673412
     21          6           0        1.792580    1.067148   -0.243103
     22          6           0        1.888294   -0.327000   -0.304014
     23          6           0        3.130927   -0.958703   -0.197418
     24          6           0        4.262447   -0.161909   -0.029870
     25          6           0        4.199647    1.229204    0.034569
     26          6           0        2.946527    1.839439   -0.074303
     27          1           0        0.823199    1.549532   -0.326793
     28          1           0        0.993805   -0.929301   -0.435047
     29          1           0        3.233758   -2.036164   -0.241263
     30          1           0        5.109041    1.802960    0.165804
     31          1           0        2.875206    2.922346   -0.026651
     32          7           0        5.583518   -0.819301    0.084184
     33          8           0        6.565423   -0.094826    0.231276
     34          8           0        5.612052   -2.046590    0.024327
 ---------------------------------------------------------------------

 SCF Done:  E(RHF) =  -669.535563629     A.U. after   15 cycles
 E2 =    -0.2090926945D+01 EUMP2 =    -0.67162649057346D+03

 The electronic state is 1-A.
 Alpha  occ. eigenvalues --  -20.60708 -20.60703 -15.85761 -11.31110 -11.27681
 Alpha  occ. eigenvalues --  -11.27677 -11.27340 -11.26679 -11.26668 -11.22609
 Alpha  occ. eigenvalues --  -11.22437 -11.22176 -11.22117 -11.21992 -11.21494
 Alpha  occ. eigenvalues --   -1.59784  -1.39338  -1.19277  -1.09186  -1.08667
 Alpha  occ. eigenvalues --   -1.04681  -1.04335  -0.96817  -0.95505  -0.87845
 Alpha  occ. eigenvalues --   -0.86073  -0.82346  -0.80413  -0.78944  -0.77400
 Alpha  occ. eigenvalues --   -0.71979  -0.71107  -0.70386  -0.65812  -0.64925
 Alpha  occ. eigenvalues --   -0.64688  -0.62036  -0.61721  -0.60243  -0.58389
 Alpha  occ. eigenvalues --   -0.56104  -0.55231  -0.53432  -0.53232  -0.52993
 Alpha  occ. eigenvalues --   -0.52768  -0.50742  -0.48739  -0.48735  -0.48712
 Alpha  occ. eigenvalues --   -0.47417  -0.46500  -0.46391  -0.44747  -0.44568
 Alpha  occ. eigenvalues --   -0.37243  -0.36292
 Alpha virt. eigenvalues --    0.05123   0.11354   0.16576   0.20279   0.22351
 Alpha virt. eigenvalues --    0.23758   0.25835   0.26164   0.26828   0.27295
 Alpha virt. eigenvalues --    0.28933   0.30044   0.30853   0.31078   0.32200

 Mulliken charges:
               1
     1  C   -0.298966
     2  C   -0.300160
     3  C   -0.476111
     4  H    0.150436
     5  H    0.150917
     6  H    0.152419
     7  H    0.152651
     8  H    0.155931
     9  H    0.155848
    10  H    0.161773
    11  C   -0.299322
    12  C   -0.299037
    13  C   -0.484759
    14  H    0.149856
    15  H    0.151201
    16  H    0.152619
    17  H    0.155999
    18  H    0.160319
    19  H    0.152999
    20  H    0.156748
    21  C   -0.177312
    22  C   -0.221401
    23  C   -0.170915
    24  C    0.158214
    25  C   -0.170775
    26  C   -0.219944
    27  H    0.236930
    28  H    0.223319
    29  H    0.275173
    30  H    0.275218
    31  H    0.223450
    32  N    0.488071
    33  O   -0.460652
    34  O   -0.460735
 Sum of Mulliken charges =  -0.00000

 Dipole moment (field-independent basis, Debye):
    X=             -4.9480    Y=              2.3305    Z=             -0.3828  Tot=              5.4827
 Quadrupole moment (field-independent basis, Debye-Ang):
   XX=           -133.8081   YY=            -91.0948   ZZ=            -95.5424
   XY=             12.1292   XZ=             -1.2741   YZ=              1.0312

 Normal termination of Gaussian 16 at Thu May  6 02:50:31 2021.
