 Gaussian 16, Revision A.03,
 Gaussian 16:  EM64L-G16RevA.03 25-Dec-2016

 -------------
 #p 6-31g* mp2
 -------------

 ------------------------------------------------------
 Input file generated by CHIRIPA (05-May-2021 14:57:21)
 ------------------------------------------------------
 Symbolic Z-matrix:
 Charge =  0 Multiplicity = 1

                         Standard orientation:
 ---------------------------------------------------------------------
 Center     Atomic      Atomic             Coordinates (Angstroms)
 Number     Number       Type             X           Y           Z
 ---------------------------------------------------------------------
      1          6           0       -5.444044   -0.364520    0.221627
      2          6           0       -4.963156    0.699226   -0.548902
      3          6           0       -3.592265    0.844721   -0.781363
      4          6           0       -2.726649   -0.096078   -0.225579
      5          6           0       -3.175045   -1.166684    0.546454
      6          6           0       -4.550030   -1.292443    0.765886
      7          1           0       -6.510574   -0.469878    0.397147
      8          1           0       -5.655136    1.421369   -0.972831
      9          1           0       -3.192868    1.658734   -1.374054
     10          1           0       -2.460772   -1.870681    0.955867
     11          1           0       -4.920652   -2.119558    1.364689
     12          7           0       -1.273181    0.047505   -0.464779
     13          8           0       -0.531234   -0.794740    0.035995
     14          8           0       -0.903423    0.999571   -1.148508
     15          6           0        3.869670   -2.084517   -0.645047
     16          6           0        3.233399   -2.013017    0.598562
     17          6           0        2.728977   -0.797021    1.069158
     18          6           0        2.878853    0.332842    0.266514
     19          6           0        3.507846    0.293775   -0.976922
     20          6           0        4.004625   -0.932924   -1.427442
     21          1           0        4.258549   -3.033289   -1.002820
     22          1           0        3.127165   -2.905740    1.208319
     23          1           0        2.232037   -0.713280    2.028041
     24          1           0        3.598719    1.200741   -1.562219
     25          1           0        4.498306   -0.985477   -2.393652
     26          7           0        2.348890    1.625828    0.754086
     27          8           0        2.493616    2.606840    0.027927
     28          8           0        1.798812    1.633776    1.853171
 ---------------------------------------------------------------------

 SCF Done:  E(RHF) =  -868.338351157     A.U. after   16 cycles
 E2 =    -0.2600831577D+01 EUMP2 =    -0.87093918273312D+03

 The electronic state is 1-A.
 Alpha  occ. eigenvalues --  -20.60760 -20.60705 -20.59237 -20.59205 -15.85758
 Alpha  occ. eigenvalues --  -15.84279 -11.31072 -11.29525 -11.27668 -11.27611
 Alpha  occ. eigenvalues --  -11.27389 -11.26669 -11.26632 -11.26203 -11.26177
 Alpha  occ. eigenvalues --  -11.26048 -11.25264 -11.25238  -1.59791  -1.58273
 Alpha  occ. eigenvalues --   -1.39347  -1.37843  -1.19243  -1.17750  -1.08653
 Alpha  occ. eigenvalues --   -1.07192  -1.04644  -1.03202  -0.95498  -0.94045
 Alpha  occ. eigenvalues --   -0.86046  -0.84622  -0.82334  -0.80916  -0.77386
 Alpha  occ. eigenvalues --   -0.75935  -0.71997  -0.71098  -0.70546  -0.70365
 Alpha  occ. eigenvalues --   -0.69516  -0.68986  -0.64905  -0.64656  -0.63473
 Alpha  occ. eigenvalues --   -0.63290  -0.61996  -0.60594  -0.55162  -0.53806
 Alpha  occ. eigenvalues --   -0.52968  -0.52745  -0.51517  -0.51364  -0.48750
 Alpha  occ. eigenvalues --   -0.48705  -0.47283  -0.47274  -0.44765  -0.43276
 Alpha  occ. eigenvalues --   -0.37221  -0.36242  -0.35711  -0.34737
 Alpha virt. eigenvalues --    0.05155   0.06671   0.11414   0.12906   0.16663
 Alpha virt. eigenvalues --    0.18123   0.21524   0.22702   0.27427   0.28402
 Alpha virt. eigenvalues --    0.28587   0.29610   0.31068   0.32165   0.32646

 Mulliken charges:
               1
     1  C   -0.170559
     2  C   -0.218568
     3  C   -0.169494
     4  C    0.159968
     5  C   -0.170093
     6  C   -0.218498
     7  H    0.225298
     8  H    0.223865
     9  H    0.277784
    10  H    0.272721
    11  H    0.222350
    12  N    0.491458
    13  O   -0.467826
    14  O   -0.456203
    15  C   -0.170639
    16  C   -0.219124
    17  C   -0.151400
    18  C    0.170514
    19  C   -0.166856
    20  C   -0.219818
    21  H    0.218490
    22  H    0.215658
    23  H    0.270324
    24  H    0.272260
    25  H    0.216900
    26  N    0.491900
    27  O   -0.462531
    28  O   -0.467879
 Sum of Mulliken charges =  -0.00000

 Dipole moment (field-independent basis, Debye):
    X=             -3.5922    Y=             -4.8895    Z=             -0.9176  Tot=              6.1362
 Quadrupole moment (field-independent basis, Debye-Ang):
   XX=            -68.0014   YY=           -104.7008   ZZ=           -102.3026
   XY=            -10.5244   XZ=             -6.5753   YZ=             -6.7836

 Normal termination of Gaussian 16 at Thu May  6 08:04:12 2021.
