 Gaussian 16, Revision A.03,
 Gaussian 16:  EM64L-G16RevA.03 25-Dec-2016

 -------------
 #p 6-31g* mp2
 -------------

 ------------------------------------------------------
 Input file generated by CHIRIPA (05-May-2021 14:51:11)
 ------------------------------------------------------
 Symbolic Z-matrix:
 Charge =  0 Multiplicity = 1

                         Standard orientation:
 ---------------------------------------------------------------------
 Center     Atomic      Atomic             Coordinates (Angstroms)
 Number     Number       Type             X           Y           Z
 ---------------------------------------------------------------------
      1          6           0       -3.435338   -0.604646    0.069967
      2          6           0       -4.398053   -1.764156   -0.188298
      3          6           0       -3.754881   -3.130721    0.049657
      4          1           0       -2.555626   -0.715400   -0.578712
      5          1           0       -3.070197   -0.663908    1.104643
      6          1           0       -4.762339   -1.701929   -1.221758
      7          1           0       -5.275664   -1.650524    0.460934
      8          1           0       -3.407083   -3.217932    1.084080
      9          1           0       -2.890841   -3.269630   -0.608173
     10          1           0       -4.460679   -3.945243   -0.140772
     11          6           0       -4.063746    0.768032   -0.163671
     12          6           0       -3.101031    1.927542    0.094595
     13          6           0       -3.744203    3.294108   -0.143360
     14          1           0       -4.428887    0.827294   -1.198347
     15          1           0       -4.943458    0.878787    0.485009
     16          1           0       -2.223420    1.813911   -0.554638
     17          1           0       -2.736745    1.865316    1.128055
     18          1           0       -4.608243    3.433016    0.514470
     19          1           0       -4.092001    3.381319   -1.177784
     20          1           0       -3.038405    4.108630    0.047069
     21          6           0        3.084197    0.193587    0.301741
     22          6           0        1.880820   -0.659352   -0.101200
     23          6           0        0.556988   -0.095743    0.416111
     24          1           0        3.120173    0.271366    1.397004
     25          1           0        2.945284    1.214655   -0.079730
     26          1           0        2.022611   -1.678863    0.279733
     27          1           0        1.847815   -0.735268   -1.195624
     28          1           0        0.388928    0.913112    0.025511
     29          1           0        0.564718   -0.035843    1.509249
     30          1           0       -0.289918   -0.720958    0.116580
     31          6           0        4.414887   -0.356974   -0.208037
     32          6           0        5.618265    0.495965    0.194904
     33          6           0        6.942096   -0.067643   -0.322407
     34          1           0        4.553800   -1.378041    0.173433
     35          1           0        4.378911   -0.434753   -1.303302
     36          1           0        5.651269    0.571882    1.289328
     37          1           0        5.476473    1.515475   -0.186029
     38          1           0        6.934366   -0.127543   -1.415547
     39          1           0        7.110155   -1.076498    0.068193
     40          1           0        7.789001    0.557571   -0.022878
 ---------------------------------------------------------------------

 SCF Done:  E(RHF) =  -470.732866399     A.U. after   11 cycles
 E2 =    -0.1583126062D+01 EUMP2 =    -0.47231599246102D+03

 The electronic state is 1-A.
 Alpha  occ. eigenvalues --  -11.21586 -11.21586 -11.21550 -11.21534 -11.21378
 Alpha  occ. eigenvalues --  -11.21367 -11.21317 -11.21307 -11.21078 -11.21060
 Alpha  occ. eigenvalues --  -11.21035 -11.20942  -1.08418  -1.08385  -1.03504
 Alpha  occ. eigenvalues --   -1.03491  -0.95980  -0.95918  -0.86988  -0.86947
 Alpha  occ. eigenvalues --   -0.79582  -0.79558  -0.78264  -0.78154  -0.65064
 Alpha  occ. eigenvalues --   -0.65008  -0.60929  -0.60865  -0.59374  -0.59290
 Alpha  occ. eigenvalues --   -0.57677  -0.57445  -0.55252  -0.55226  -0.52795
 Alpha  occ. eigenvalues --   -0.52596  -0.52426  -0.52241  -0.49916  -0.49876
 Alpha  occ. eigenvalues --   -0.48024  -0.47727  -0.46655  -0.46542  -0.45813
 Alpha  occ. eigenvalues --   -0.45739  -0.45683  -0.45621  -0.43777  -0.43621
 Alpha virt. eigenvalues --    0.21947   0.23083   0.23898   0.24161   0.26060
 Alpha virt. eigenvalues --    0.26485   0.26832   0.27513   0.27923   0.29231
 Alpha virt. eigenvalues --    0.29910   0.31558   0.31592   0.31806   0.32330

 Mulliken charges:
               1
     1  C   -0.302426
     2  C   -0.299051
     3  C   -0.476078
     4  H    0.153633
     5  H    0.150622
     6  H    0.151682
     7  H    0.151885
     8  H    0.155311
     9  H    0.154614
    10  H    0.160470
    11  C   -0.298072
    12  C   -0.301586
    13  C   -0.475757
    14  H    0.149002
    15  H    0.149410
    16  H    0.154727
    17  H    0.152788
    18  H    0.155004
    19  H    0.154827
    20  H    0.160008
    21  C   -0.298404
    22  C   -0.299821
    23  C   -0.481794
    24  H    0.149554
    25  H    0.149307
    26  H    0.151678
    27  H    0.151058
    28  H    0.156062
    29  H    0.154296
    30  H    0.167302
    31  C   -0.298155
    32  C   -0.299590
    33  C   -0.475675
    34  H    0.149480
    35  H    0.149465
    36  H    0.151902
    37  H    0.151853
    38  H    0.155117
    39  H    0.155164
    40  H    0.160188
 Sum of Mulliken charges =  -0.00000

 Dipole moment (field-independent basis, Debye):
    X=             -0.0268    Y=             -0.0027    Z=              0.0087  Tot=              0.0283
 Quadrupole moment (field-independent basis, Debye-Ang):
   XX=            -86.0228   YY=            -85.7540   ZZ=            -83.1695
   XY=              0.5912   XZ=              0.0411   YZ=             -0.4043

 Normal termination of Gaussian 16 at Thu May  6 07:01:10 2021.
