 Gaussian 16, Revision A.03,
 Gaussian 16:  EM64L-G16RevA.03 25-Dec-2016

 -------------
 #p 6-31g* mp2
 -------------

 ------------------------------------------------------
 Input file generated by CHIRIPA (05-May-2021 14:53:18)
 ------------------------------------------------------
 Symbolic Z-matrix:
 Charge =  0 Multiplicity = 1

                         Standard orientation:
 ---------------------------------------------------------------------
 Center     Atomic      Atomic             Coordinates (Angstroms)
 Number     Number       Type             X           Y           Z
 ---------------------------------------------------------------------
      1          6           0       -3.335057    1.127495   -0.433194
      2          6           0       -2.315121    2.104730    0.152237
      3          6           0       -2.537446    3.542841   -0.317017
      4          1           0       -3.285225    1.168694   -1.529900
      5          1           0       -4.346657    1.453085   -0.153817
      6          1           0       -1.305672    1.776619   -0.127000
      7          1           0       -2.367253    2.061060    1.247678
      8          1           0       -3.532481    3.893880   -0.024992
      9          1           0       -2.464869    3.607823   -1.407480
     10          1           0       -1.797321    4.224565    0.113479
     11          6           0       -3.125871   -0.314208    0.026656
     12          6           0       -4.145807   -1.291442   -0.558775
     13          6           0       -3.923481   -2.729554   -0.089521
     14          1           0       -2.114271   -0.639798   -0.252721
     15          1           0       -3.175703   -0.355406    1.123362
     16          1           0       -4.093674   -1.247772   -1.654216
     17          1           0       -5.155255   -0.963332   -0.279538
     18          1           0       -3.996059   -2.794536    1.000942
     19          1           0       -2.928447   -3.080593   -0.381546
     20          1           0       -4.663607   -3.411278   -0.520017
     21          6           0        0.348433   -0.922943    1.284581
     22          6           0        1.297778   -0.152710    1.964292
     23          6           0        2.506543    0.188620    1.350346
     24          6           0        2.734107   -0.259177    0.049968
     25          6           0        1.808063   -1.027941   -0.653406
     26          6           0        0.606151   -1.357334   -0.019799
     27          1           0       -0.587902   -1.183459    1.769144
     28          1           0        1.100333    0.186032    2.977363
     29          1           0        3.258975    0.783705    1.853473
     30          1           0        2.033351   -1.350995   -1.662513
     31          1           0       -0.129290   -1.955632   -0.550092
     32          7           0        4.010144    0.095855   -0.610396
     33          8           0        4.186596   -0.310997   -1.756682
     34          8           0        4.809689    0.774259    0.030802
 ---------------------------------------------------------------------

 SCF Done:  E(RHF) =  -669.534249925     A.U. after   15 cycles
 E2 =    -0.2093920442D+01 EUMP2 =    -0.67162817036664D+03

 The electronic state is 1-A.
 Alpha  occ. eigenvalues --  -20.60764 -20.60759 -15.85820 -11.31181 -11.27775
 Alpha  occ. eigenvalues --  -11.27768 -11.27459 -11.26760 -11.26746 -11.22500
 Alpha  occ. eigenvalues --  -11.22344 -11.22133 -11.22126 -11.22056 -11.21471
 Alpha  occ. eigenvalues --   -1.59841  -1.39395  -1.19370  -1.09256  -1.08744
 Alpha  occ. eigenvalues --   -1.04779  -1.04271  -0.96747  -0.95587  -0.87757
 Alpha  occ. eigenvalues --   -0.86184  -0.82424  -0.80359  -0.79087  -0.77470
 Alpha  occ. eigenvalues --   -0.72039  -0.71166  -0.70449  -0.65951  -0.65009
 Alpha  occ. eigenvalues --   -0.64754  -0.62151  -0.61637  -0.60116  -0.58355
 Alpha  occ. eigenvalues --   -0.56055  -0.55255  -0.53431  -0.53201  -0.53054
 Alpha  occ. eigenvalues --   -0.52875  -0.50691  -0.48806  -0.48794  -0.48654
 Alpha  occ. eigenvalues --   -0.47387  -0.46571  -0.46476  -0.44802  -0.44534
 Alpha  occ. eigenvalues --   -0.37251  -0.36368
 Alpha virt. eigenvalues --    0.05061   0.11110   0.16517   0.19320   0.22727
 Alpha virt. eigenvalues --    0.23465   0.24499   0.26087   0.27380   0.28167
 Alpha virt. eigenvalues --    0.29324   0.29600   0.30958   0.31526   0.31741

 Mulliken charges:
               1
     1  C   -0.297323
     2  C   -0.303035
     3  C   -0.476143
     4  H    0.152139
     5  H    0.151380
     6  H    0.158156
     7  H    0.147430
     8  H    0.155330
     9  H    0.157241
    10  H    0.162273
    11  C   -0.306976
    12  C   -0.299725
    13  C   -0.477256
    14  H    0.150474
    15  H    0.144120
    16  H    0.154689
    17  H    0.155825
    18  H    0.154788
    19  H    0.147623
    20  H    0.166272
    21  C   -0.166436
    22  C   -0.219984
    23  C   -0.170549
    24  C    0.157841
    25  C   -0.172476
    26  C   -0.223508
    27  H    0.230714
    28  H    0.223547
    29  H    0.275657
    30  H    0.275669
    31  H    0.225153
    32  N    0.488151
    33  O   -0.460581
    34  O   -0.460478
 Sum of Mulliken charges =  -0.00000

 Dipole moment (field-independent basis, Debye):
    X=             -4.5965    Y=             -1.1783    Z=              2.2904  Tot=              5.2690
 Quadrupole moment (field-independent basis, Debye-Ang):
   XX=           -118.8712   YY=            -94.4865   ZZ=            -90.7594
   XY=             -1.4799   XZ=              7.2822   YZ=              2.0354

 Normal termination of Gaussian 16 at Wed May  5 18:50:58 2021.
