 Gaussian 16, Revision A.03,
 Gaussian 16:  EM64L-G16RevA.03 25-Dec-2016

 -------------
 #p 6-31g* mp2
 -------------

 ------------------------------------------------------
 Input file generated by CHIRIPA (05-May-2021 14:51:08)
 ------------------------------------------------------
 Symbolic Z-matrix:
 Charge =  0 Multiplicity = 1

                         Standard orientation:
 ---------------------------------------------------------------------
 Center     Atomic      Atomic             Coordinates (Angstroms)
 Number     Number       Type             X           Y           Z
 ---------------------------------------------------------------------
      1          6           0        2.884122   -0.293316   -0.188538
      2          6           0        3.461963   -1.005302   -1.412123
      3          6           0        3.758007   -2.482533   -1.151465
      4          1           0        3.589772   -0.385198    0.648456
      5          1           0        1.962078   -0.803680    0.122523
      6          1           0        4.381899   -0.492911   -1.721620
      7          1           0        2.754941   -0.911550   -2.246356
      8          1           0        2.844709   -3.013640   -0.864388
      9          1           0        4.480912   -2.592622   -0.336671
     10          1           0        4.170316   -2.972088   -2.039270
     11          6           0        2.582933    1.184190   -0.433464
     12          6           0        2.005091    1.896177    0.790120
     13          6           0        1.709048    3.373408    0.529463
     14          1           0        3.504977    1.694554   -0.744526
     15          1           0        1.877282    1.276073   -1.270459
     16          1           0        2.712114    1.802425    1.624354
     17          1           0        1.085156    1.383786    1.099618
     18          1           0        0.986143    3.483497   -0.285332
     19          1           0        2.622346    3.904515    0.242386
     20          1           0        1.296738    3.862962    1.417268
     21          6           0       -2.492460   -0.962887    0.818509
     22          6           0       -1.185866   -0.571460    1.509582
     23          6           0       -0.716454   -1.616634    2.522033
     24          1           0       -3.270861   -1.114464    1.578812
     25          1           0       -2.356703   -1.929138    0.313213
     26          1           0       -1.323636    0.394431    2.012265
     27          1           0       -0.410534   -0.420611    0.747532
     28          1           0       -0.551286   -2.581302    2.031384
     29          1           0       -1.469577   -1.761630    3.303305
     30          1           0        0.219164   -1.316654    3.004205
     31          6           0       -2.974594    0.072013   -0.196506
     32          6           0       -4.281189   -0.319415   -0.887580
     33          6           0       -4.750601    0.725760   -1.900030
     34          1           0       -3.110353    1.038263    0.308789
     35          1           0       -2.196194    0.223589   -0.956810
     36          1           0       -5.056521   -0.470264   -0.125529
     37          1           0       -4.143419   -1.285306   -1.390263
     38          1           0       -3.997478    0.870755   -2.681302
     39          1           0       -4.915769    1.690428   -1.409382
     40          1           0       -5.686219    0.425779   -2.382202
 ---------------------------------------------------------------------

 SCF Done:  E(RHF) =  -470.732642959     A.U. after   11 cycles
 E2 =    -0.1584041716D+01 EUMP2 =    -0.47231668467501D+03

 The electronic state is 1-A.
 Alpha  occ. eigenvalues --  -11.21665 -11.21648 -11.21610 -11.21472 -11.21468
 Alpha  occ. eigenvalues --  -11.21408 -11.21388 -11.21326 -11.21124 -11.21108
 Alpha  occ. eigenvalues --  -11.21082 -11.21012  -1.08511  -1.08398  -1.03602
 Alpha  occ. eigenvalues --   -1.03490  -0.96035  -0.95956  -0.87052  -0.86969
 Alpha  occ. eigenvalues --   -0.79739  -0.79520  -0.78417  -0.78118  -0.65268
 Alpha  occ. eigenvalues --   -0.64938  -0.60997  -0.60910  -0.59439  -0.59284
 Alpha  occ. eigenvalues --   -0.57648  -0.57564  -0.55350  -0.55221  -0.52730
 Alpha  occ. eigenvalues --   -0.52641  -0.52461  -0.52377  -0.49979  -0.49907
 Alpha  occ. eigenvalues --   -0.48159  -0.47809  -0.46802  -0.46609  -0.46119
 Alpha  occ. eigenvalues --   -0.45773  -0.45742  -0.45145  -0.43834  -0.43753
 Alpha virt. eigenvalues --    0.20693   0.23304   0.24013   0.24072   0.25910
 Alpha virt. eigenvalues --    0.26587   0.26914   0.27816   0.28211   0.29510
 Alpha virt. eigenvalues --    0.30312   0.31571   0.31605   0.31923   0.32212

 Mulliken charges:
               1
     1  C   -0.304613
     2  C   -0.299252
     3  C   -0.475605
     4  H    0.149861
     5  H    0.154634
     6  H    0.152161
     7  H    0.151416
     8  H    0.154838
     9  H    0.155386
    10  H    0.160235
    11  C   -0.297640
    12  C   -0.309194
    13  C   -0.475085
    14  H    0.149552
    15  H    0.148595
    16  H    0.150883
    17  H    0.163415
    18  H    0.154993
    19  H    0.154721
    20  H    0.159684
    21  C   -0.296943
    22  C   -0.308880
    23  C   -0.476343
    24  H    0.149967
    25  H    0.149388
    26  H    0.152835
    27  H    0.158484
    28  H    0.154936
    29  H    0.155638
    30  H    0.162007
    31  C   -0.298469
    32  C   -0.299665
    33  C   -0.475753
    34  H    0.149832
    35  H    0.148893
    36  H    0.152177
    37  H    0.151998
    38  H    0.155103
    39  H    0.155346
    40  H    0.160462
 Sum of Mulliken charges =  -0.00000

 Dipole moment (field-independent basis, Debye):
    X=             -0.0398    Y=             -0.0231    Z=              0.0277  Tot=              0.0537
 Quadrupole moment (field-independent basis, Debye-Ang):
   XX=            -83.9151   YY=            -86.2084   ZZ=            -84.6996
   XY=              0.5018   XZ=             -0.4744   YZ=              0.9446

 Normal termination of Gaussian 16 at Wed May  5 15:03:28 2021.
