 Gaussian 16, Revision A.03,
 Gaussian 16:  EM64L-G16RevA.03 25-Dec-2016

 -------------
 #p 6-31g* mp2
 -------------

 ------------------------------------------------------
 Input file generated by CHIRIPA (05-May-2021 14:53:11)
 ------------------------------------------------------
 Symbolic Z-matrix:
 Charge =  0 Multiplicity = 1

                         Standard orientation:
 ---------------------------------------------------------------------
 Center     Atomic      Atomic             Coordinates (Angstroms)
 Number     Number       Type             X           Y           Z
 ---------------------------------------------------------------------
      1          6           0        3.795398    0.259616    0.088107
      2          6           0        3.268646    1.462512    0.871406
      3          6           0        1.746637    1.591654    0.803531
      4          1           0        3.479741    0.346259   -0.960606
      5          1           0        3.330970   -0.656006    0.479690
      6          1           0        3.734977    2.375455    0.479376
      7          1           0        3.585756    1.373093    1.918335
      8          1           0        1.265507    0.697705    1.213372
      9          1           0        1.415576    1.705762   -0.233763
     10          1           0        1.391573    2.458049    1.370231
     11          6           0        5.315272    0.117110    0.146451
     12          6           0        5.842024   -1.085786   -0.636849
     13          6           0        7.364032   -1.214928   -0.568974
     14          1           0        5.779700    1.032732   -0.245133
     15          1           0        5.630929    0.030467    1.195163
     16          1           0        5.524914   -0.996367   -1.683778
     17          1           0        5.375693   -1.998729   -0.244819
     18          1           0        7.695093   -1.329036    0.468320
     19          1           0        7.845162   -0.320979   -0.978815
     20          1           0        7.719097   -2.081323   -1.135674
     21          6           0       -6.056392   -0.503493   -0.056124
     22          6           0       -5.507444    0.528924   -0.823778
     23          6           0       -4.125023    0.735614   -0.850957
     24          6           0       -3.317403   -0.112710   -0.095056
     25          6           0       -3.834237   -1.150000    0.679671
     26          6           0       -5.219513   -1.338188    0.691832
     27          1           0       -7.131398   -0.656869   -0.040843
     28          1           0       -6.154954    1.178703   -1.405639
     29          1           0       -3.673491    1.527230   -1.436518
     30          1           0       -3.163249   -1.781459    1.249276
     31          1           0       -5.643048   -2.140779    1.288917
     32          7           0       -1.852385    0.096311   -0.115880
     33          8           0       -1.162414   -0.664801    0.558870
     34          8           0       -1.421815    1.017296   -0.806556
 ---------------------------------------------------------------------

 SCF Done:  E(RHF) =  -669.536113701     A.U. after   15 cycles
 E2 =    -0.2091804138D+01 EUMP2 =    -0.67162791783883D+03

 The electronic state is 1-A.
 Alpha  occ. eigenvalues --  -20.60991 -20.60980 -15.86001 -11.31321 -11.27878
 Alpha  occ. eigenvalues --  -11.27874 -11.27613 -11.26882 -11.26872 -11.20755
 Alpha  occ. eigenvalues --  -11.20390 -11.20353 -11.20052 -11.19992 -11.18778
 Alpha  occ. eigenvalues --   -1.60026  -1.39586  -1.19483  -1.08888  -1.07231
 Alpha  occ. eigenvalues --   -1.04878  -1.02231  -0.95735  -0.94638  -0.86278
 Alpha  occ. eigenvalues --   -0.85645  -0.82566  -0.78346  -0.77620  -0.76963
 Alpha  occ. eigenvalues --   -0.72222  -0.71335  -0.70591  -0.65139  -0.64880
 Alpha  occ. eigenvalues --   -0.63878  -0.62225  -0.59636  -0.58136  -0.56261
 Alpha  occ. eigenvalues --   -0.55379  -0.53925  -0.53210  -0.52968  -0.51361
 Alpha  occ. eigenvalues --   -0.51130  -0.49074  -0.48948  -0.48459  -0.46511
 Alpha  occ. eigenvalues --   -0.45414  -0.44983  -0.44451  -0.44378  -0.42506
 Alpha  occ. eigenvalues --   -0.37460  -0.36478
 Alpha virt. eigenvalues --    0.04901   0.11178   0.16402   0.21313   0.23960
 Alpha virt. eigenvalues --    0.25681   0.27231   0.27822   0.28181   0.28636
 Alpha virt. eigenvalues --    0.29542   0.30892   0.32351   0.32790   0.32825

 Mulliken charges:
               1
     1  C   -0.296746
     2  C   -0.300775
     3  C   -0.480492
     4  H    0.150034
     5  H    0.151940
     6  H    0.144759
     7  H    0.144651
     8  H    0.172502
     9  H    0.168339
    10  H    0.147414
    11  C   -0.297217
    12  C   -0.298698
    13  C   -0.474968
    14  H    0.146843
    15  H    0.146969
    16  H    0.151195
    17  H    0.151334
    18  H    0.153781
    19  H    0.153845
    20  H    0.157644
    21  C   -0.170541
    22  C   -0.218574
    23  C   -0.170705
    24  C    0.158802
    25  C   -0.170684
    26  C   -0.218565
    27  H    0.226067
    28  H    0.223907
    29  H    0.275890
    30  H    0.275740
    31  H    0.223882
    32  N    0.489221
    33  O   -0.459084
    34  O   -0.457712
 Sum of Mulliken charges =  -0.00000

 Dipole moment (field-independent basis, Debye):
    X=             -5.6456    Y=             -0.8260    Z=             -0.0063  Tot=              5.7057
 Quadrupole moment (field-independent basis, Debye-Ang):
   XX=            -63.9322   YY=            -92.0899   ZZ=            -92.8309
   XY=              2.6085   XZ=              0.4852   YZ=             -3.6232

 Normal termination of Gaussian 16 at Wed May  5 18:26:53 2021.
