 Gaussian 16, Revision A.03,
 Gaussian 16:  EM64L-G16RevA.03 25-Dec-2016

 -------------
 #p 6-31g* mp2
 -------------

 ------------------------------------------------------
 Input file generated by CHIRIPA (05-May-2021 14:55:24)
 ------------------------------------------------------
 Symbolic Z-matrix:
 Charge =  0 Multiplicity = 1

                         Standard orientation:
 ---------------------------------------------------------------------
 Center     Atomic      Atomic             Coordinates (Angstroms)
 Number     Number       Type             X           Y           Z
 ---------------------------------------------------------------------
      1          6           0        5.334554   -0.157204   -0.187179
      2          6           0        4.701668   -0.782495    0.892167
      3          6           0        3.310800   -0.733673    1.025026
      4          6           0        2.580418   -0.047766    0.055818
      5          6           0        3.181814    0.585221   -1.030892
      6          6           0        4.573948    0.523458   -1.143577
      7          1           0        6.415505   -0.200156   -0.282551
      8          1           0        5.289828   -1.311823    1.636429
      9          1           0        2.795110   -1.208934    1.850621
     10          1           0        2.568777    1.105332   -1.756900
     11          1           0        5.062758    1.009992   -1.982860
     12          7           0        1.107298    0.010769    0.185792
     13          8           0        0.486397    0.621427   -0.681512
     14          8           0        0.601462   -0.555117    1.152507
     15          6           0       -3.365997   -0.608439   -0.282873
     16          6           0       -4.379256   -1.732408   -0.063825
     17          6           0       -3.869214   -3.090523   -0.546708
     18          1           0       -3.118299   -0.549829   -1.351590
     19          1           0       -2.432936   -0.858131    0.241003
     20          1           0       -5.310599   -1.480023   -0.586812
     21          1           0       -4.624716   -1.788225    1.004469
     22          1           0       -2.952288   -3.368256   -0.016884
     23          1           0       -3.642069   -3.058303   -1.617206
     24          1           0       -4.609297   -3.879524   -0.380527
     25          6           0       -3.861410    0.755418    0.194816
     26          6           0       -2.848149    1.879389   -0.024233
     27          6           0       -3.358192    3.237502    0.458651
     28          1           0       -4.794470    1.005110   -0.329059
     29          1           0       -4.109108    0.696808    1.263533
     30          1           0       -2.602690    1.935204   -1.092526
     31          1           0       -1.916806    1.627002    0.498755
     32          1           0       -3.585338    3.205282    1.529149
     33          1           0       -4.275119    3.515235   -0.071173
     34          1           0       -2.618110    4.026504    0.292471
 ---------------------------------------------------------------------

 SCF Done:  E(RHF) =  -669.536731724     A.U. after   15 cycles
 E2 =    -0.2092233464D+01 EUMP2 =    -0.67162896518844D+03

 The electronic state is 1-A.
 Alpha  occ. eigenvalues --  -20.61148 -20.61140 -15.86134 -11.31405 -11.27955
 Alpha  occ. eigenvalues --  -11.27951 -11.27681 -11.26946 -11.26936 -11.20275
 Alpha  occ. eigenvalues --  -11.19965 -11.19771 -11.19705 -11.19614 -11.19552
 Alpha  occ. eigenvalues --   -1.60177  -1.39735  -1.19562  -1.08978  -1.06799
 Alpha  occ. eigenvalues --   -1.04947  -1.02045  -0.95827  -0.94544  -0.86351
 Alpha  occ. eigenvalues --   -0.85570  -0.82664  -0.78076  -0.77725  -0.76543
 Alpha  occ. eigenvalues --   -0.72333  -0.71479  -0.70669  -0.65216  -0.64950
 Alpha  occ. eigenvalues --   -0.63439  -0.62294  -0.59456  -0.57918  -0.56134
 Alpha  occ. eigenvalues --   -0.55455  -0.53851  -0.53282  -0.53037  -0.51306
 Alpha  occ. eigenvalues --   -0.50968  -0.49200  -0.49116  -0.48495  -0.46387
 Alpha  occ. eigenvalues --   -0.45185  -0.45052  -0.44124  -0.43834  -0.42258
 Alpha  occ. eigenvalues --   -0.37536  -0.36544
 Alpha virt. eigenvalues --    0.04781   0.11112   0.16296   0.21250   0.24419
 Alpha virt. eigenvalues --    0.25651   0.27178   0.28083   0.28256   0.29111
 Alpha virt. eigenvalues --    0.29514   0.30883   0.32356   0.32732   0.33154

 Mulliken charges:
               1
     1  C   -0.170313
     2  C   -0.218604
     3  C   -0.170549
     4  C    0.158895
     5  C   -0.170601
     6  C   -0.218597
     7  H    0.226417
     8  H    0.224197
     9  H    0.275927
    10  H    0.276151
    11  H    0.224242
    12  N    0.488496
    13  O   -0.456294
    14  O   -0.460819
    15  C   -0.303385
    16  C   -0.298291
    17  C   -0.474733
    18  H    0.146676
    19  H    0.171389
    20  H    0.146382
    21  H    0.148871
    22  H    0.156809
    23  H    0.152427
    24  H    0.154551
    25  C   -0.297729
    26  C   -0.299956
    27  C   -0.475532
    28  H    0.141046
    29  H    0.144789
    30  H    0.150571
    31  H    0.172848
    32  H    0.150665
    33  H    0.148848
    34  H    0.155205
 Sum of Mulliken charges =  -0.00000

 Dipole moment (field-independent basis, Debye):
    X=              5.7636    Y=             -0.2538    Z=             -0.4478  Tot=              5.7865
 Quadrupole moment (field-independent basis, Debye-Ang):
   XX=            -70.4030   YY=            -96.0986   ZZ=            -90.8322
   XY=             -0.6255   XZ=             -0.3381   YZ=             -3.3777

 Normal termination of Gaussian 16 at Wed May  5 19:08:43 2021.
