 Gaussian 16, Revision A.03,
 Gaussian 16:  EM64L-G16RevA.03 25-Dec-2016

 -------------
 #p 6-31g* mp2
 -------------

 ------------------------------------------------------
 Input file generated by CHIRIPA (05-May-2021 14:57:25)
 ------------------------------------------------------
 Symbolic Z-matrix:
 Charge =  0 Multiplicity = 1

                         Standard orientation:
 ---------------------------------------------------------------------
 Center     Atomic      Atomic             Coordinates (Angstroms)
 Number     Number       Type             X           Y           Z
 ---------------------------------------------------------------------
      1          6           0        2.535938    2.358010    0.862926
      2          6           0        3.634080    2.276000    0.000442
      3          6           0        4.138309    1.032110   -0.390760
      4          6           0        3.517269   -0.114627    0.101778
      5          6           0        2.421699   -0.065705    0.962373
      6          6           0        1.934313    1.188957    1.340298
      7          1           0        2.150782    3.328477    1.161664
      8          1           0        4.103310    3.182235   -0.371857
      9          1           0        4.987163    0.939691   -1.057336
     10          1           0        1.975025   -0.986646    1.317009
     11          1           0        1.081346    1.249615    2.010233
     12          7           0        4.042158   -1.437179   -0.305342
     13          8           0        3.477226   -2.432629    0.142507
     14          8           0        5.008560   -1.453303   -1.064581
     15          6           0       -5.920500   -0.155547    0.236578
     16          6           0       -5.398274    0.605146   -0.814682
     17          6           0       -4.020416    0.641465   -1.048639
     18          6           0       -3.190061   -0.098300   -0.208074
     19          6           0       -3.680028   -0.865746    0.847506
     20          6           0       -5.061226   -0.887276    1.062859
     21          1           0       -6.992151   -0.178017    0.411096
     22          1           0       -6.063215    1.174408   -1.457985
     23          1           0       -3.589353    1.221943   -1.855267
     24          1           0       -2.992075   -1.422762    1.471902
     25          1           0       -5.463988   -1.478924    1.880038
     26          7           0       -1.729617   -0.067679   -0.445907
     27          8           0       -1.019271   -0.728236    0.308884
     28          8           0       -1.322920    0.616300   -1.382608
 ---------------------------------------------------------------------

 SCF Done:  E(RHF) =  -868.338822913     A.U. after   16 cycles
 E2 =    -0.2599468790D+01 EUMP2 =    -0.87093829170256D+03

 The electronic state is 1-A.
 Alpha  occ. eigenvalues --  -20.61377 -20.61345 -20.59567 -20.59549 -15.86399
 Alpha  occ. eigenvalues --  -15.84608 -11.31634 -11.29754 -11.28188 -11.28177
 Alpha  occ. eigenvalues --  -11.27894 -11.27165 -11.27155 -11.26421 -11.26236
 Alpha  occ. eigenvalues --  -11.26156 -11.25430 -11.25275  -1.60422  -1.58637
 Alpha  occ. eigenvalues --   -1.39983  -1.38196  -1.19791  -1.17944  -1.09209
 Alpha  occ. eigenvalues --   -1.07409  -1.05173  -1.03314  -0.96066  -0.94266
 Alpha  occ. eigenvalues --   -0.86576  -0.84758  -0.82906  -0.81102  -0.77967
 Alpha  occ. eigenvalues --   -0.76155  -0.72628  -0.71740  -0.70893  -0.70844
 Alpha  occ. eigenvalues --   -0.69947  -0.69117  -0.65446  -0.65170  -0.63622
 Alpha  occ. eigenvalues --   -0.63373  -0.62520  -0.60678  -0.55673  -0.53927
 Alpha  occ. eigenvalues --   -0.53511  -0.53260  -0.51675  -0.51448  -0.49370
 Alpha  occ. eigenvalues --   -0.49335  -0.47600  -0.47580  -0.45415  -0.43649
 Alpha  occ. eigenvalues --   -0.37764  -0.36771  -0.35963  -0.34836
 Alpha virt. eigenvalues --    0.04540   0.06390   0.10885   0.12759   0.16061
 Alpha virt. eigenvalues --    0.17889   0.21047   0.22676   0.26971   0.27870
 Alpha virt. eigenvalues --    0.28611   0.29546   0.30650   0.32114   0.32187

 Mulliken charges:
               1
     1  C   -0.169854
     2  C   -0.219023
     3  C   -0.171542
     4  C    0.155221
     5  C   -0.153679
     6  C   -0.212157
     7  H    0.219177
     8  H    0.217473
     9  H    0.270920
    10  H    0.279600
    11  H    0.219666
    12  N    0.488584
    13  O   -0.460935
    14  O   -0.465891
    15  C   -0.170292
    16  C   -0.218529
    17  C   -0.170857
    18  C    0.157504
    19  C   -0.171280
    20  C   -0.218453
    21  H    0.227144
    22  H    0.224747
    23  H    0.276112
    24  H    0.275140
    25  H    0.224925
    26  N    0.489374
    27  O   -0.466935
    28  O   -0.456159
 Sum of Mulliken charges =  -0.00000

 Dipole moment (field-independent basis, Debye):
    X=             -7.4687    Y=              4.4394    Z=              2.2592  Tot=              8.9774
 Quadrupole moment (field-independent basis, Debye-Ang):
   XX=            -84.2178   YY=           -104.5133   ZZ=           -101.2721
   XY=             18.5265   XZ=              1.7711   YZ=             -4.1777

 Normal termination of Gaussian 16 at Thu May  6 11:23:24 2021.
