 Gaussian 16, Revision A.03,
 Gaussian 16:  EM64L-G16RevA.03 25-Dec-2016

 -------------
 #p 6-31g* mp2
 -------------

 ------------------------------------------------------
 Input file generated by CHIRIPA (05-May-2021 14:51:09)
 ------------------------------------------------------
 Symbolic Z-matrix:
 Charge =  0 Multiplicity = 1

                         Standard orientation:
 ---------------------------------------------------------------------
 Center     Atomic      Atomic             Coordinates (Angstroms)
 Number     Number       Type             X           Y           Z
 ---------------------------------------------------------------------
      1          6           0       -3.477903   -0.347864    0.080741
      2          6           0       -3.335634   -1.693683   -0.630958
      3          6           0       -2.015937   -2.395760   -0.309583
      4          1           0       -2.637502    0.300370   -0.202920
      5          1           0       -3.399526   -0.504527    1.165503
      6          1           0       -3.415640   -1.534711   -1.713983
      7          1           0       -4.176575   -2.338720   -0.345719
      8          1           0       -1.931227   -2.583283    0.765713
      9          1           0       -1.165969   -1.774705   -0.610326
     10          1           0       -1.935125   -3.355838   -0.828794
     11          6           0       -4.792071    0.366127   -0.230559
     12          6           0       -4.934341    1.711946    0.481140
     13          6           0       -6.254038    2.414023    0.159765
     14          1           0       -4.870449    0.522790   -1.315321
     15          1           0       -5.632473   -0.282107    0.053102
     16          1           0       -4.093400    2.356983    0.195901
     17          1           0       -4.854335    1.552973    1.564165
     18          1           0       -7.104006    1.792968    0.460508
     19          1           0       -6.338747    2.601546   -0.915531
     20          1           0       -6.334849    3.374100    0.678976
     21          6           0        3.581177   -0.462773   -0.191428
     22          6           0        3.106938   -1.501711    0.825277
     23          6           0        1.998825   -2.401750    0.277728
     24          1           0        2.726440    0.153416   -0.502362
     25          1           0        3.938798   -0.978983   -1.093110
     26          1           0        2.751606   -0.983750    1.725316
     27          1           0        3.962942   -2.115375    1.133970
     28          1           0        2.345518   -2.944378   -0.607687
     29          1           0        1.127299   -1.806325   -0.012981
     30          1           0        1.674805   -3.136960    1.020921
     31          6           0        4.688798    0.444511    0.341246
     32          6           0        5.163036    1.483449   -0.675460
     33          6           0        6.271150    2.383487   -0.127910
     34          1           0        4.331177    0.960720    1.242928
     35          1           0        5.543534   -0.171679    0.652180
     36          1           0        4.307033    2.097112   -0.984152
     37          1           0        5.518369    0.965487   -1.575499
     38          1           0        7.142676    1.788062    0.162799
     39          1           0        5.924457    2.926116    0.757505
     40          1           0        6.595170    3.118698   -0.871104
 ---------------------------------------------------------------------

 SCF Done:  E(RHF) =  -470.733083657     A.U. after   11 cycles
 E2 =    -0.1582290970D+01 EUMP2 =    -0.47231537462742D+03

 The electronic state is 1-A.
 Alpha  occ. eigenvalues --  -11.21609 -11.21592 -11.21580 -11.21546 -11.21408
 Alpha  occ. eigenvalues --  -11.21385 -11.21349 -11.21325 -11.21077 -11.21064
 Alpha  occ. eigenvalues --  -11.21020 -11.20957  -1.08429  -1.08402  -1.03532
 Alpha  occ. eigenvalues --   -1.03483  -0.96004  -0.95909  -0.87051  -0.86895
 Alpha  occ. eigenvalues --   -0.79649  -0.79494  -0.78252  -0.78207  -0.65072
 Alpha  occ. eigenvalues --   -0.65025  -0.60988  -0.60840  -0.59341  -0.59305
 Alpha  occ. eigenvalues --   -0.57644  -0.57511  -0.55393  -0.55121  -0.52730
 Alpha  occ. eigenvalues --   -0.52603  -0.52506  -0.52229  -0.50060  -0.49740
 Alpha  occ. eigenvalues --   -0.48006  -0.47761  -0.46698  -0.46487  -0.45829
 Alpha  occ. eigenvalues --   -0.45728  -0.45706  -0.45621  -0.43791  -0.43734
 Alpha virt. eigenvalues --    0.22419   0.22997   0.23610   0.24738   0.25933
 Alpha virt. eigenvalues --    0.26775   0.26935   0.27617   0.27623   0.29080
 Alpha virt. eigenvalues --    0.30148   0.31441   0.31762   0.31999   0.32138

 Mulliken charges:
               1
     1  C   -0.298149
     2  C   -0.299910
     3  C   -0.477830
     4  H    0.148933
     5  H    0.149504
     6  H    0.151785
     7  H    0.151801
     8  H    0.155299
     9  H    0.158142
    10  H    0.160720
    11  C   -0.298243
    12  C   -0.299633
    13  C   -0.475704
    14  H    0.149549
    15  H    0.149739
    16  H    0.151781
    17  H    0.151903
    18  H    0.155223
    19  H    0.155201
    20  H    0.160230
    21  C   -0.298152
    22  C   -0.299622
    23  C   -0.479609
    24  H    0.148940
    25  H    0.149460
    26  H    0.151697
    27  H    0.151570
    28  H    0.154525
    29  H    0.160656
    30  H    0.160353
    31  C   -0.298235
    32  C   -0.299614
    33  C   -0.475689
    34  H    0.149503
    35  H    0.149681
    36  H    0.151764
    37  H    0.151891
    38  H    0.155193
    39  H    0.155170
    40  H    0.160179
 Sum of Mulliken charges =  -0.00000

 Dipole moment (field-independent basis, Debye):
    X=             -0.0154    Y=             -0.0183    Z=             -0.0010  Tot=              0.0239
 Quadrupole moment (field-independent basis, Debye-Ang):
   XX=            -85.6819   YY=            -85.0392   ZZ=            -84.1253
   XY=             -0.2510   XZ=             -0.9392   YZ=             -0.2445

 Normal termination of Gaussian 16 at Wed May  5 18:08:07 2021.
