 Gaussian 16, Revision A.03,
 Gaussian 16:  EM64L-G16RevA.03 25-Dec-2016

 -------------
 #p 6-31g* mp2
 -------------

 ------------------------------------------------------
 Input file generated by CHIRIPA (05-May-2021 14:51:07)
 ------------------------------------------------------
 Symbolic Z-matrix:
 Charge =  0 Multiplicity = 1

                         Standard orientation:
 ---------------------------------------------------------------------
 Center     Atomic      Atomic             Coordinates (Angstroms)
 Number     Number       Type             X           Y           Z
 ---------------------------------------------------------------------
      1          6           0        4.866531   -0.063874    0.048912
      2          6           0        5.310509   -1.505888   -0.199002
      3          6           0        6.626114   -1.847999    0.500953
      4          1           0        5.654835    0.619947   -0.294470
      5          1           0        4.760701    0.099042    1.130417
      6          1           0        5.414132   -1.666434   -1.279790
      7          1           0        4.520975   -2.186350    0.144835
      8          1           0        6.532177   -1.715728    1.583673
      9          1           0        7.430409   -1.192858    0.150953
     10          1           0        6.924839   -2.883511    0.310327
     11          6           0        3.552903    0.293237   -0.644329
     12          6           0        3.108926    1.735252   -0.396415
     13          6           0        1.793320    2.077362   -1.096370
     14          1           0        3.658733    0.130321   -1.725834
     15          1           0        2.764599   -0.390583   -0.300946
     16          1           0        3.898460    2.415713   -0.740252
     17          1           0        3.005302    1.895797    0.684374
     18          1           0        0.989025    1.422221   -0.746369
     19          1           0        1.887257    1.945091   -2.179089
     20          1           0        1.494595    3.112874   -0.905744
     21          6           0       -3.471116   -0.213517    0.465434
     22          6           0       -2.842365    0.990514    1.167549
     23          6           0       -1.364461    0.777600    1.496582
     24          1           0       -3.360189   -1.101038    1.103358
     25          1           0       -2.914967   -0.421632   -0.459110
     26          1           0       -3.400387    1.197150    2.089790
     27          1           0       -2.954971    1.875310    0.527963
     28          1           0       -0.789126    0.593629    0.583485
     29          1           0       -1.237073   -0.088385    2.154187
     30          1           0       -0.935017    1.650495    1.998074
     31          6           0       -4.948318   -0.015846    0.129982
     32          6           0       -5.577070   -1.219877   -0.572132
     33          6           0       -7.054974   -1.006964   -0.901165
     34          1           0       -5.504468    0.192269    1.054526
     35          1           0       -5.059245    0.871674   -0.507941
     36          1           0       -5.464463   -2.104674    0.067454
     37          1           0       -5.019047   -1.426513   -1.494373
     38          1           0       -7.182361   -0.140979   -1.558769
     39          1           0       -7.630308   -0.822992    0.011931
     40          1           0       -7.484418   -1.879858   -1.402657
 ---------------------------------------------------------------------

 SCF Done:  E(RHF) =  -470.733250126     A.U. after   11 cycles
 E2 =    -0.1582312826D+01 EUMP2 =    -0.47231556295188D+03

 The electronic state is 1-A.
 Alpha  occ. eigenvalues --  -11.21614 -11.21603 -11.21579 -11.21563 -11.21412
 Alpha  occ. eigenvalues --  -11.21376 -11.21352 -11.21316 -11.21094 -11.21071
 Alpha  occ. eigenvalues --  -11.21053 -11.21017  -1.08439  -1.08399  -1.03547
 Alpha  occ. eigenvalues --   -1.03493  -0.96012  -0.95932  -0.87042  -0.86938
 Alpha  occ. eigenvalues --   -0.79631  -0.79537  -0.78253  -0.78210  -0.65093
 Alpha  occ. eigenvalues --   -0.65010  -0.61055  -0.60800  -0.59361  -0.59314
 Alpha  occ. eigenvalues --   -0.57636  -0.57535  -0.55486  -0.55062  -0.52692
 Alpha  occ. eigenvalues --   -0.52638  -0.52486  -0.52315  -0.50140  -0.49690
 Alpha  occ. eigenvalues --   -0.47983  -0.47820  -0.46741  -0.46464  -0.45816
 Alpha  occ. eigenvalues --   -0.45752  -0.45710  -0.45625  -0.43794  -0.43755
 Alpha virt. eigenvalues --    0.21700   0.23028   0.23584   0.24880   0.26005
 Alpha virt. eigenvalues --    0.26787   0.27161   0.27638   0.27730   0.28972
 Alpha virt. eigenvalues --    0.30162   0.31553   0.31780   0.31868   0.32094

 Mulliken charges:
               1
     1  C   -0.298302
     2  C   -0.299663
     3  C   -0.475694
     4  H    0.149542
     5  H    0.149687
     6  H    0.151813
     7  H    0.152031
     8  H    0.155197
     9  H    0.155118
    10  H    0.160171
    11  C   -0.298478
    12  C   -0.299148
    13  C   -0.481546
    14  H    0.149267
    15  H    0.149797
    16  H    0.151679
    17  H    0.152358
    18  H    0.161127
    19  H    0.154562
    20  H    0.160038
    21  C   -0.298516
    22  C   -0.299381
    23  C   -0.480881
    24  H    0.149541
    25  H    0.149674
    26  H    0.151972
    27  H    0.152527
    28  H    0.159661
    29  H    0.154972
    30  H    0.160693
    31  C   -0.298341
    32  C   -0.299688
    33  C   -0.475720
    34  H    0.149518
    35  H    0.149827
    36  H    0.151890
    37  H    0.152026
    38  H    0.155240
    39  H    0.155165
    40  H    0.160267
 Sum of Mulliken charges =  -0.00000

 Dipole moment (field-independent basis, Debye):
    X=             -0.0196    Y=              0.0015    Z=              0.0094  Tot=              0.0218
 Quadrupole moment (field-independent basis, Debye-Ang):
   XX=            -86.5282   YY=            -84.7270   ZZ=            -83.5718
   XY=              0.6175   XZ=             -1.3811   YZ=             -0.4200

 Normal termination of Gaussian 16 at Wed May  5 16:34:47 2021.
