 Gaussian 16, Revision A.03,
 Gaussian 16:  EM64L-G16RevA.03 25-Dec-2016

 -------------
 #p 6-31g* mp2
 -------------

 ------------------------------------------------------
 Input file generated by CHIRIPA (05-May-2021 14:51:13)
 ------------------------------------------------------
 Symbolic Z-matrix:
 Charge =  0 Multiplicity = 1

                         Standard orientation:
 ---------------------------------------------------------------------
 Center     Atomic      Atomic             Coordinates (Angstroms)
 Number     Number       Type             X           Y           Z
 ---------------------------------------------------------------------
      1          6           0        2.784547    1.041541    0.041836
      2          6           0        1.787990    2.099626   -0.432836
      3          6           0        1.840106    3.378327    0.403823
      4          1           0        2.581011    0.801303    1.094359
      5          1           0        3.799155    1.462023    0.007761
      6          1           0        0.775707    1.676816   -0.399189
      7          1           0        1.993801    2.337233   -1.484407
      8          1           0        2.838277    3.826049    0.361388
      9          1           0        1.613263    3.161881    1.452772
     10          1           0        1.119686    4.121075    0.047199
     11          6           0        2.744370   -0.242567   -0.784712
     12          6           0        3.740928   -1.300652   -0.310039
     13          6           0        3.688811   -2.579354   -1.146699
     14          1           0        1.729763   -0.663050   -0.750636
     15          1           0        2.947906   -0.002329   -1.837234
     16          1           0        3.535117   -1.538259    0.741532
     17          1           0        4.753210   -0.877842   -0.343687
     18          1           0        3.915655   -2.362907   -2.195648
     19          1           0        2.690640   -3.027076   -1.104263
     20          1           0        4.409231   -3.322102   -0.790074
     21          6           0       -3.082762   -0.049308   -0.228137
     22          6           0       -4.561718   -0.389880   -0.414373
     23          6           0       -5.184422    0.318320   -1.617904
     24          1           0       -2.975230    1.037809   -0.111701
     25          1           0       -2.533284   -0.321887   -1.139823
     26          1           0       -5.108014   -0.118017    0.497914
     27          1           0       -4.665761   -1.476332   -0.530188
     28          1           0       -4.665246    0.038860   -2.540379
     29          1           0       -5.110012    1.404892   -1.506436
     30          1           0       -6.241948    0.060655   -1.732391
     31          6           0       -2.446156   -0.749665    0.971013
     32          6           0       -0.967200   -0.409094    1.157248
     33          6           0       -0.344496   -1.117294    2.360780
     34          1           0       -2.995634   -0.477088    1.882698
     35          1           0       -2.553687   -1.836783    0.854577
     36          1           0       -0.863157    0.677359    1.273063
     37          1           0       -0.420903   -0.680957    0.244962
     38          1           0       -0.418906   -2.203866    2.249311
     39          1           0       -0.863672   -0.837833    3.283254
     40          1           0        0.713030   -0.859628    2.475266
 ---------------------------------------------------------------------

 SCF Done:  E(RHF) =  -470.732614011     A.U. after   11 cycles
 E2 =    -0.1584612697D+01 EUMP2 =    -0.47231722670769D+03

 The electronic state is 1-A.
 Alpha  occ. eigenvalues --  -11.21690 -11.21644 -11.21584 -11.21479 -11.21472
 Alpha  occ. eigenvalues --  -11.21411 -11.21359 -11.21300 -11.21185 -11.21099
 Alpha  occ. eigenvalues --  -11.21069 -11.21033  -1.08524  -1.08373  -1.03613
 Alpha  occ. eigenvalues --   -1.03484  -0.96057  -0.95943  -0.87069  -0.86964
 Alpha  occ. eigenvalues --   -0.79720  -0.79539  -0.78411  -0.78111  -0.65194
 Alpha  occ. eigenvalues --   -0.65012  -0.61099  -0.60817  -0.59413  -0.59301
 Alpha  occ. eigenvalues --   -0.57658  -0.57559  -0.55372  -0.55199  -0.52748
 Alpha  occ. eigenvalues --   -0.52646  -0.52483  -0.52367  -0.50020  -0.49874
 Alpha  occ. eigenvalues --   -0.48138  -0.47860  -0.46860  -0.46520  -0.46142
 Alpha  occ. eigenvalues --   -0.45743  -0.45718  -0.45166  -0.43838  -0.43742
 Alpha virt. eigenvalues --    0.19693   0.23077   0.23532   0.24865   0.25042
 Alpha virt. eigenvalues --    0.26021   0.26590   0.27852   0.28541   0.29540
 Alpha virt. eigenvalues --    0.30686   0.31278   0.31642   0.31942   0.32050

 Mulliken charges:
               1
     1  C   -0.299563
     2  C   -0.305405
     3  C   -0.476065
     4  H    0.150812
     5  H    0.149438
     6  H    0.159387
     7  H    0.151168
     8  H    0.155086
     9  H    0.154606
    10  H    0.159781
    11  C   -0.304659
    12  C   -0.299698
    13  C   -0.475563
    14  H    0.155533
    15  H    0.149563
    16  H    0.152037
    17  H    0.151949
    18  H    0.155142
    19  H    0.154622
    20  H    0.160299
    21  C   -0.298920
    22  C   -0.299616
    23  C   -0.475786
    24  H    0.149784
    25  H    0.149644
    26  H    0.152072
    27  H    0.152069
    28  H    0.155356
    29  H    0.155305
    30  H    0.160404
    31  C   -0.297309
    32  C   -0.308684
    33  C   -0.478347
    34  H    0.149759
    35  H    0.149731
    36  H    0.155026
    37  H    0.157700
    38  H    0.155519
    39  H    0.155935
    40  H    0.161888
 Sum of Mulliken charges =  -0.00000

 Dipole moment (field-independent basis, Debye):
    X=             -0.0543    Y=             -0.0191    Z=              0.0066  Tot=              0.0580
 Quadrupole moment (field-independent basis, Debye-Ang):
   XX=            -84.6239   YY=            -85.2645   ZZ=            -84.9792
   XY=              0.3638   XZ=             -1.0527   YZ=              0.0912

 Normal termination of Gaussian 16 at Thu May  6 02:24:30 2021.
