 Gaussian 16, Revision A.03,
 Gaussian 16:  EM64L-G16RevA.03 25-Dec-2016

 -------------
 #p 6-31g* mp2
 -------------

 ------------------------------------------------------
 Input file generated by CHIRIPA (05-May-2021 14:53:14)
 ------------------------------------------------------
 Symbolic Z-matrix:
 Charge =  0 Multiplicity = 1

                         Standard orientation:
 ---------------------------------------------------------------------
 Center     Atomic      Atomic             Coordinates (Angstroms)
 Number     Number       Type             X           Y           Z
 ---------------------------------------------------------------------
      1          6           0       -2.660019    0.689216    0.313095
      2          6           0       -2.695902    2.211232    0.171089
      3          6           0       -1.611272    2.907435    0.993690
      4          1           0       -2.774304    0.423411    1.372921
      5          1           0       -1.671597    0.322262    0.003641
      6          1           0       -3.684424    2.575072    0.479407
      7          1           0       -2.581710    2.473438   -0.888545
      8          1           0       -0.616695    2.572691    0.681658
      9          1           0       -1.725674    2.674902    2.057383
     10          1           0       -1.655190    3.994831    0.877498
     11          6           0       -3.738318   -0.020993   -0.503362
     12          6           0       -3.702436   -1.543009   -0.361356
     13          6           0       -4.787066   -2.239212   -1.183957
     14          1           0       -4.726740    0.345961   -0.193908
     15          1           0       -3.624034    0.244812   -1.563188
     16          1           0       -3.816627   -1.805215    0.698278
     17          1           0       -2.713914   -1.906849   -0.669674
     18          1           0       -4.672664   -2.006679   -2.247650
     19          1           0       -5.781643   -1.904467   -0.871925
     20          1           0       -4.743148   -3.326608   -1.067765
     21          6           0        3.310993    0.826014   -2.053000
     22          6           0        3.601220   -0.518539   -1.799098
     23          6           0        3.156607   -1.131185   -0.623712
     24          6           0        2.420884   -0.366115    0.279985
     25          6           0        2.115579    0.975417    0.055553
     26          6           0        2.570406    1.567393   -1.126498
     27          1           0        3.660346    1.293905   -2.968657
     28          1           0        4.176171   -1.096747   -2.516838
     29          1           0        3.367042   -2.170400   -0.401970
     30          1           0        1.540349    1.526060    0.789938
     31          1           0        2.343519    2.611770   -1.321043
     32          7           0        1.944786   -1.003757    1.527841
     33          8           0        1.298377   -0.307994    2.308037
     34          8           0        2.227046   -2.187229    1.702086
 ---------------------------------------------------------------------

 SCF Done:  E(RHF) =  -669.535509969     A.U. after   15 cycles
 E2 =    -0.2091693547D+01 EUMP2 =    -0.67162720351625D+03

 The electronic state is 1-A.
 Alpha  occ. eigenvalues --  -20.60782 -20.60774 -15.85831 -11.31223 -11.27790
 Alpha  occ. eigenvalues --  -11.27771 -11.27535 -11.26816 -11.26805 -11.21588
 Alpha  occ. eigenvalues --  -11.21322 -11.21208 -11.21190 -11.21116 -11.20858
 Alpha  occ. eigenvalues --   -1.59853  -1.39405  -1.19396  -1.08785  -1.08256
 Alpha  occ. eigenvalues --   -1.04803  -1.03412  -0.95872  -0.95615  -0.86895
 Alpha  occ. eigenvalues --   -0.86196  -0.82446  -0.79473  -0.78040  -0.77486
 Alpha  occ. eigenvalues --   -0.72049  -0.71176  -0.70508  -0.65048  -0.64925
 Alpha  occ. eigenvalues --   -0.64778  -0.62185  -0.60802  -0.59232  -0.57464
 Alpha  occ. eigenvalues --   -0.55349  -0.55126  -0.53129  -0.52920  -0.52585
 Alpha  occ. eigenvalues --   -0.52256  -0.49819  -0.48812  -0.48801  -0.47780
 Alpha  occ. eigenvalues --   -0.46498  -0.45595  -0.45505  -0.44787  -0.43646
 Alpha  occ. eigenvalues --   -0.37376  -0.36397
 Alpha virt. eigenvalues --    0.05012   0.11175   0.16509   0.20614   0.23064
 Alpha virt. eigenvalues --    0.24150   0.25835   0.27049   0.27708   0.27909
 Alpha virt. eigenvalues --    0.29215   0.30801   0.31484   0.31910   0.32058

 Mulliken charges:
               1
     1  C   -0.297866
     2  C   -0.299742
     3  C   -0.476140
     4  H    0.157101
     5  H    0.148541
     6  H    0.153017
     7  H    0.148301
     8  H    0.144279
     9  H    0.164461
    10  H    0.157978
    11  C   -0.298553
    12  C   -0.299538
    13  C   -0.475721
    14  H    0.148978
    15  H    0.146729
    16  H    0.155741
    17  H    0.152346
    18  H    0.153135
    19  H    0.154710
    20  H    0.160888
    21  C   -0.170893
    22  C   -0.218453
    23  C   -0.170900
    24  C    0.158807
    25  C   -0.177375
    26  C   -0.220275
    27  H    0.225767
    28  H    0.223640
    29  H    0.275735
    30  H    0.283696
    31  H    0.224019
    32  N    0.487566
    33  O   -0.459531
    34  O   -0.460447
 Sum of Mulliken charges =  -0.00000

 Dipole moment (field-independent basis, Debye):
    X=              1.6578    Y=              2.1807    Z=             -4.2884  Tot=              5.0886
 Quadrupole moment (field-independent basis, Debye-Ang):
   XX=            -86.3991   YY=            -93.5134   ZZ=            -97.0155
   XY=              2.2689   XZ=            -12.4016   YZ=              3.3578

 Normal termination of Gaussian 16 at Wed May  5 23:29:40 2021.
