 Gaussian 16, Revision A.03,
 Gaussian 16:  EM64L-G16RevA.03 25-Dec-2016

 -------------
 #p 6-31g* mp2
 -------------

 ------------------------------------------------------
 Input file generated by CHIRIPA (05-May-2021 14:51:11)
 ------------------------------------------------------
 Symbolic Z-matrix:
 Charge =  0 Multiplicity = 1

                         Standard orientation:
 ---------------------------------------------------------------------
 Center     Atomic      Atomic             Coordinates (Angstroms)
 Number     Number       Type             X           Y           Z
 ---------------------------------------------------------------------
      1          6           0        2.058196   -0.264215   -0.310555
      2          6           0        3.053113   -1.181658   -1.022189
      3          6           0        2.460801   -2.551550   -1.354386
      4          1           0        1.716041   -0.751061    0.612948
      5          1           0        1.169684   -0.136634   -0.944324
      6          1           0        3.940077   -1.306359   -0.387870
      7          1           0        3.393085   -0.692490   -1.944008
      8          1           0        1.588053   -2.445938   -2.006887
      9          1           0        2.138153   -3.063294   -0.441908
     10          1           0        3.189006   -3.191235   -1.862699
     11          6           0        2.635644    1.108941    0.028155
     12          6           0        1.640727    2.026383    0.739789
     13          6           0        2.233039    3.396276    1.071987
     14          1           0        3.524157    0.981359    0.661924
     15          1           0        2.977799    1.595786   -0.895348
     16          1           0        1.300755    1.537215    1.661608
     17          1           0        0.753763    2.151084    0.105470
     18          1           0        2.555687    3.908020    0.159508
     19          1           0        3.105787    3.290663    1.724487
     20          1           0        1.504834    4.035960    1.580299
     21          6           0       -2.208712   -1.173574    0.144701
     22          6           0       -1.433541   -1.641765    1.376728
     23          6           0       -1.164727   -3.146915    1.369281
     24          1           0       -3.161721   -1.717427    0.090447
     25          1           0       -1.643961   -1.441651   -0.758951
     26          1           0       -1.998925   -1.371654    2.277837
     27          1           0       -0.482353   -1.096595    1.428162
     28          1           0       -0.580351   -3.429521    0.487669
     29          1           0       -2.105540   -3.706143    1.342172
     30          1           0       -0.609486   -3.459975    2.258977
     31          6           0       -2.485127    0.328849    0.137699
     32          6           0       -3.260299    0.797040   -1.094329
     33          6           0       -3.529113    2.302190   -1.086881
     34          1           0       -3.049879    0.596926    1.041351
     35          1           0       -1.532119    0.872702    0.191953
     36          1           0       -4.211488    0.251870   -1.145762
     37          1           0       -2.694915    0.526928   -1.995437
     38          1           0       -2.588299    2.861418   -1.059773
     39          1           0       -4.113490    2.584796   -0.205269
     40          1           0       -4.084354    2.615251   -1.976577
 ---------------------------------------------------------------------

 SCF Done:  E(RHF) =  -470.732902103     A.U. after   11 cycles
 E2 =    -0.1585099805D+01 EUMP2 =    -0.47231800190859D+03

 The electronic state is 1-A.
 Alpha  occ. eigenvalues --  -11.21700 -11.21687 -11.21573 -11.21500 -11.21470
 Alpha  occ. eigenvalues --  -11.21440 -11.21321 -11.21261 -11.21151 -11.21136
 Alpha  occ. eigenvalues --  -11.21065 -11.21000  -1.08547  -1.08346  -1.03622
 Alpha  occ. eigenvalues --   -1.03469  -0.96067  -0.95925  -0.87093  -0.86931
 Alpha  occ. eigenvalues --   -0.79693  -0.79536  -0.78461  -0.78082  -0.65175
 Alpha  occ. eigenvalues --   -0.64997  -0.61020  -0.60885  -0.59424  -0.59298
 Alpha  occ. eigenvalues --   -0.57704  -0.57515  -0.55356  -0.55219  -0.52758
 Alpha  occ. eigenvalues --   -0.52622  -0.52511  -0.52354  -0.50044  -0.49824
 Alpha  occ. eigenvalues --   -0.48109  -0.47788  -0.46765  -0.46692  -0.46289
 Alpha  occ. eigenvalues --   -0.45724  -0.45607  -0.45119  -0.43869  -0.43719
 Alpha virt. eigenvalues --    0.19867   0.21887   0.23450   0.24043   0.25386
 Alpha virt. eigenvalues --    0.26164   0.26232   0.27526   0.28952   0.30297
 Alpha virt. eigenvalues --    0.30782   0.31416   0.31734   0.31874   0.32282

 Mulliken charges:
               1
     1  C   -0.305357
     2  C   -0.299166
     3  C   -0.478615
     4  H    0.155335
     5  H    0.150808
     6  H    0.152338
     7  H    0.152218
     8  H    0.154827
     9  H    0.158068
    10  H    0.160930
    11  C   -0.297858
    12  C   -0.304598
    13  C   -0.475585
    14  H    0.149936
    15  H    0.149839
    16  H    0.153240
    17  H    0.154767
    18  H    0.155347
    19  H    0.155503
    20  H    0.160921
    21  C   -0.297809
    22  C   -0.305762
    23  C   -0.478824
    24  H    0.149241
    25  H    0.149493
    26  H    0.151041
    27  H    0.158926
    28  H    0.158299
    29  H    0.155091
    30  H    0.158912
    31  C   -0.305921
    32  C   -0.299277
    33  C   -0.475661
    34  H    0.149204
    35  H    0.157300
    36  H    0.151986
    37  H    0.150903
    38  H    0.154449
    39  H    0.155376
    40  H    0.160135
 Sum of Mulliken charges =  -0.00000

 Dipole moment (field-independent basis, Debye):
    X=              0.0798    Y=              0.0208    Z=              0.0038  Tot=              0.0826
 Quadrupole moment (field-independent basis, Debye-Ang):
   XX=            -84.0377   YY=            -86.8544   ZZ=            -83.8784
   XY=             -0.0108   XZ=             -0.2491   YZ=             -0.4889

 Normal termination of Gaussian 16 at Wed May  5 19:52:13 2021.
