 Gaussian 16, Revision A.03,
 Gaussian 16:  EM64L-G16RevA.03 25-Dec-2016

 -------------
 #p 6-31g* mp2
 -------------

 ------------------------------------------------------
 Input file generated by CHIRIPA (05-May-2021 14:57:26)
 ------------------------------------------------------
 Symbolic Z-matrix:
 Charge =  0 Multiplicity = 1

                         Standard orientation:
 ---------------------------------------------------------------------
 Center     Atomic      Atomic             Coordinates (Angstroms)
 Number     Number       Type             X           Y           Z
 ---------------------------------------------------------------------
      1          6           0       -6.050143    0.395227    1.006474
      2          6           0       -5.751622   -0.932689    0.683915
      3          6           0       -4.520087   -1.264680    0.111506
      4          6           0       -3.606351   -0.238971   -0.125763
      5          6           0       -3.874325    1.093409    0.184469
      6          6           0       -5.112196    1.402263    0.756162
      7          1           0       -7.009290    0.644139    1.450857
      8          1           0       -6.478123   -1.716835    0.877189
      9          1           0       -4.262996   -2.284464   -0.148039
     10          1           0       -3.129877    1.853279   -0.020011
     11          1           0       -5.341308    2.434404    1.005635
     12          7           0       -2.299227   -0.578188   -0.731368
     13          8           0       -1.511308    0.343873   -0.930427
     14          8           0       -2.087372   -1.759705   -0.995516
     15          6           0        5.505337   -1.504834    0.852126
     16          6           0        5.666997   -0.148900    1.155159
     17          6           0        4.740394    0.795135    0.702663
     18          6           0        3.659021    0.346244   -0.053919
     19          6           0        3.470444   -0.997747   -0.372379
     20          6           0        4.409508   -1.924191    0.090667
     21          1           0        6.229984   -2.231350    1.207733
     22          1           0        6.517067    0.179653    1.746327
     23          1           0        4.841273    1.850994    0.922669
     24          1           0        2.612891   -1.294979   -0.963709
     25          1           0        4.281416   -2.976583   -0.146204
     26          7           0        2.671472    1.336340   -0.538541
     27          8           0        1.727360    0.915297   -1.203381
     28          8           0        2.860242    2.514672   -0.244370
 ---------------------------------------------------------------------

 SCF Done:  E(RHF) =  -868.335987339     A.U. after   16 cycles
 E2 =    -0.2599918876D+01 EUMP2 =    -0.87093590621473D+03

 The electronic state is 1-A.
 Alpha  occ. eigenvalues --  -20.60071 -20.59952 -20.59687 -20.59532 -15.85058
 Alpha  occ. eigenvalues --  -15.84649 -11.30646 -11.30289 -11.27277 -11.27201
 Alpha  occ. eigenvalues --  -11.27045 -11.26946 -11.26820 -11.26730 -11.26335
 Alpha  occ. eigenvalues --  -11.26289 -11.26020 -11.25950  -1.59097  -1.58692
 Alpha  occ. eigenvalues --   -1.38638  -1.38228  -1.18847  -1.18501  -1.08206
 Alpha  occ. eigenvalues --   -1.07856  -1.04279  -1.03938  -0.94999  -0.94634
 Alpha  occ. eigenvalues --   -0.85668  -0.85326  -0.81825  -0.81448  -0.76835
 Alpha  occ. eigenvalues --   -0.76452  -0.71320  -0.70783  -0.70441  -0.70026
 Alpha  occ. eigenvalues --   -0.69951  -0.69609  -0.64491  -0.64287  -0.64140
 Alpha  occ. eigenvalues --   -0.63949  -0.61619  -0.61269  -0.54784  -0.54456
 Alpha  occ. eigenvalues --   -0.52604  -0.52373  -0.52267  -0.52031  -0.48088
 Alpha  occ. eigenvalues --   -0.48019  -0.47637  -0.47605  -0.44024  -0.43526
 Alpha  occ. eigenvalues --   -0.36849  -0.36517  -0.35895  -0.35557
 Alpha virt. eigenvalues --    0.05685   0.06087   0.11755   0.12091   0.17134
 Alpha virt. eigenvalues --    0.17514   0.21868   0.22188   0.27766   0.28090
 Alpha virt. eigenvalues --    0.28793   0.29141   0.31400   0.31711   0.33079

 Mulliken charges:
               1
     1  C   -0.171616
     2  C   -0.218736
     3  C   -0.171831
     4  C    0.158099
     5  C   -0.171630
     6  C   -0.218842
     7  H    0.223704
     8  H    0.221137
     9  H    0.273463
    10  H    0.280525
    11  H    0.222991
    12  N    0.486367
    13  O   -0.444156
    14  O   -0.469361
    15  C   -0.171950
    16  C   -0.219068
    17  C   -0.172147
    18  C    0.157685
    19  C   -0.171818
    20  C   -0.219375
    21  H    0.222349
    22  H    0.219949
    23  H    0.273100
    24  H    0.284972
    25  H    0.222522
    26  N    0.486227
    27  O   -0.442724
    28  O   -0.469837
 Sum of Mulliken charges =  -0.00000

 Dipole moment (field-independent basis, Debye):
    X=             -1.2446    Y=             -2.2056    Z=              3.6472  Tot=              4.4403
 Quadrupole moment (field-independent basis, Debye-Ang):
   XX=            -48.2904   YY=           -101.3012   ZZ=           -106.1091
   XY=            -11.9401   XZ=             -0.0146   YZ=              2.0693

 Normal termination of Gaussian 16 at Fri May  7 11:14:13 2021.
