 Gaussian 16, Revision A.03,
 Gaussian 16:  EM64L-G16RevA.03 25-Dec-2016

 -------------
 #p 6-31g* mp2
 -------------

 ------------------------------------------------------
 Input file generated by CHIRIPA (05-May-2021 14:51:09)
 ------------------------------------------------------
 Symbolic Z-matrix:
 Charge =  0 Multiplicity = 1

                         Standard orientation:
 ---------------------------------------------------------------------
 Center     Atomic      Atomic             Coordinates (Angstroms)
 Number     Number       Type             X           Y           Z
 ---------------------------------------------------------------------
      1          6           0       -2.211173   -0.800011    0.383114
      2          6           0       -3.229712   -0.636305   -0.745497
      3          6           0       -3.600783   -1.965256   -1.404276
      4          1           0       -1.306102   -1.278883   -0.014972
      5          1           0       -2.619634   -1.484018    1.139876
      6          1           0       -2.820021    0.048275   -1.499234
      7          1           0       -4.132390   -0.157593   -0.344719
      8          1           0       -4.033556   -2.651869   -0.669517
      9          1           0       -2.713729   -2.444832   -1.830592
     10          1           0       -4.330048   -1.824988   -2.208240
     11          6           0       -1.830213    0.519782    1.051502
     12          6           0       -0.811673    0.356077    2.180113
     13          6           0       -0.440603    1.685028    2.838892
     14          1           0       -1.421752    1.203789    0.294740
     15          1           0       -2.735284    0.998654    1.449588
     16          1           0        0.091005   -0.122635    1.779335
     17          1           0       -1.221365   -0.328503    2.933850
     18          1           0       -1.327656    2.164603    3.265208
     19          1           0       -0.007830    2.371641    2.104133
     20          1           0        0.288662    1.544760    3.642856
     21          6           0        2.528090   -0.137382   -0.218333
     22          6           0        2.672447   -1.658238   -0.282706
     23          6           0        3.691106   -2.198387    0.721468
     24          1           0        3.507274    0.325610   -0.402131
     25          1           0        2.231030    0.153025    0.798925
     26          1           0        2.967802   -1.945800   -1.299903
     27          1           0        1.692768   -2.117658   -0.098923
     28          1           0        3.398044   -1.940164    1.744229
     29          1           0        4.680322   -1.767329    0.536424
     30          1           0        3.778423   -3.287537    0.658316
     31          6           0        1.513296    0.417610   -1.216283
     32          6           0        1.368938    1.938466   -1.151909
     33          6           0        0.350280    2.478616   -2.156084
     34          1           0        1.810355    0.127204   -2.233541
     35          1           0        0.534112   -0.045381   -1.032484
     36          1           0        2.348618    2.397887   -1.335693
     37          1           0        1.073584    2.226029   -0.134713
     38          1           0       -0.638936    2.047558   -1.971040
     39          1           0        0.643342    2.220393   -3.178844
     40          1           0        0.262962    3.567766   -2.092932
 ---------------------------------------------------------------------

 SCF Done:  E(RHF) =  -470.731631208     A.U. after   11 cycles
 E2 =    -0.1587424055D+01 EUMP2 =    -0.47231905526247D+03

 The electronic state is 1-A.
 Alpha  occ. eigenvalues --  -11.21664 -11.21663 -11.21659 -11.21647 -11.21461
 Alpha  occ. eigenvalues --  -11.21442 -11.21396 -11.21382 -11.21148 -11.21141
 Alpha  occ. eigenvalues --  -11.21103 -11.21103  -1.08629  -1.08381  -1.03621
 Alpha  occ. eigenvalues --   -1.03570  -0.96046  -0.96043  -0.87071  -0.87045
 Alpha  occ. eigenvalues --   -0.79716  -0.79609  -0.78342  -0.78304  -0.66010
 Alpha  occ. eigenvalues --   -0.64399  -0.61124  -0.60838  -0.59441  -0.59371
 Alpha  occ. eigenvalues --   -0.57740  -0.57569  -0.55372  -0.55363  -0.52738
 Alpha  occ. eigenvalues --   -0.52725  -0.52483  -0.52449  -0.50145  -0.49876
 Alpha  occ. eigenvalues --   -0.48028  -0.47994  -0.46915  -0.46488  -0.46215
 Alpha  occ. eigenvalues --   -0.45707  -0.45655  -0.45393  -0.43850  -0.43826
 Alpha virt. eigenvalues --    0.18646   0.21812   0.22333   0.24407   0.25425
 Alpha virt. eigenvalues --    0.26115   0.26676   0.28917   0.29090   0.29304
 Alpha virt. eigenvalues --    0.30888   0.31397   0.31596   0.32144   0.32323

 Mulliken charges:
               1
     1  C   -0.303189
     2  C   -0.302137
     3  C   -0.475760
     4  H    0.152419
     5  H    0.150589
     6  H    0.153319
     7  H    0.152592
     8  H    0.155339
     9  H    0.155563
    10  H    0.160591
    11  C   -0.306242
    12  C   -0.306298
    13  C   -0.480099
    14  H    0.157133
    15  H    0.150676
    16  H    0.158045
    17  H    0.152665
    18  H    0.156020
    19  H    0.158563
    20  H    0.160441
    21  C   -0.302701
    22  C   -0.302132
    23  C   -0.475615
    24  H    0.150751
    25  H    0.153213
    26  H    0.152392
    27  H    0.152761
    28  H    0.155335
    29  H    0.155429
    30  H    0.160516
    31  C   -0.306091
    32  C   -0.306788
    33  C   -0.480217
    34  H    0.150084
    35  H    0.157434
    36  H    0.153242
    37  H    0.157415
    38  H    0.157942
    39  H    0.155898
    40  H    0.160900
 Sum of Mulliken charges =  -0.00000

 Dipole moment (field-independent basis, Debye):
    X=             -0.0016    Y=              0.0036    Z=              0.0002  Tot=              0.0040
 Quadrupole moment (field-independent basis, Debye-Ang):
   XX=            -84.1943   YY=            -85.7858   ZZ=            -84.6145
   XY=              0.2209   XZ=             -1.7035   YZ=             -0.2791

 Normal termination of Gaussian 16 at Thu May  6 03:44:55 2021.
