 Gaussian 16, Revision A.03,
 Gaussian 16:  EM64L-G16RevA.03 25-Dec-2016

 -------------
 #p 6-31g* mp2
 -------------

 ------------------------------------------------------
 Input file generated by CHIRIPA (05-May-2021 14:55:23)
 ------------------------------------------------------
 Symbolic Z-matrix:
 Charge =  0 Multiplicity = 1

                         Standard orientation:
 ---------------------------------------------------------------------
 Center     Atomic      Atomic             Coordinates (Angstroms)
 Number     Number       Type             X           Y           Z
 ---------------------------------------------------------------------
      1          6           0       -2.000776    2.119960    0.547568
      2          6           0       -2.574115    1.867003   -0.702958
      3          6           0       -3.177063    0.634548   -0.971390
      4          6           0       -3.188815   -0.326562    0.038273
      5          6           0       -2.626083   -0.104641    1.294209
      6          6           0       -2.028541    1.135067    1.540410
      7          1           0       -1.534491    3.080178    0.747458
      8          1           0       -2.554024    2.630020   -1.475906
      9          1           0       -3.628423    0.412153   -1.930677
     10          1           0       -2.661617   -0.884905    2.044772
     11          1           0       -1.584064    1.328732    2.512511
     12          7           0       -3.824268   -1.635146   -0.234136
     13          8           0       -3.821529   -2.465295    0.672220
     14          8           0       -4.313042   -1.805887   -1.348849
     15          6           0        3.299617    0.452790    0.152167
     16          6           0        2.863378    1.688650   -0.635441
     17          6           0        1.565383    2.299221   -0.106096
     18          1           0        2.498488   -0.298149    0.117110
     19          1           0        3.426045    0.725856    1.208977
     20          1           0        2.739150    1.413650   -1.690695
     21          1           0        3.665717    2.436658   -0.598665
     22          1           0        1.680216    2.601136    0.939973
     23          1           0        0.748384    1.572315   -0.158260
     24          1           0        1.271954    3.181424   -0.683571
     25          6           0        4.595639   -0.168907   -0.365081
     26          6           0        5.031879   -1.404768    0.422528
     27          6           0        6.329874   -2.015339   -0.106817
     28          1           0        4.469211   -0.441973   -1.421890
     29          1           0        5.396769    0.582031   -0.330023
     30          1           0        4.229540   -2.152777    0.385751
     31          1           0        5.156107   -1.129768    1.477781
     32          1           0        7.146872   -1.288432   -0.054653
     33          1           0        6.215041   -2.317253   -1.152887
     34          1           0        6.623304   -2.897542    0.470657
 ---------------------------------------------------------------------

 SCF Done:  E(RHF) =  -669.535097738     A.U. after   15 cycles
 E2 =    -0.2091846766D+01 EUMP2 =    -0.67162694450357D+03

 The electronic state is 1-A.
 Alpha  occ. eigenvalues --  -20.60765 -20.60760 -15.85821 -11.31176 -11.27767
 Alpha  occ. eigenvalues --  -11.27762 -11.27475 -11.26752 -11.26742 -11.22074
 Alpha  occ. eigenvalues --  -11.21802 -11.21757 -11.21701 -11.21636 -11.21219
 Alpha  occ. eigenvalues --   -1.59842  -1.39396  -1.19367  -1.08790  -1.08736
 Alpha  occ. eigenvalues --   -1.04765  -1.03891  -0.96370  -0.95582  -0.87391
 Alpha  occ. eigenvalues --   -0.86159  -0.82418  -0.79970  -0.78565  -0.77467
 Alpha  occ. eigenvalues --   -0.72038  -0.71168  -0.70457  -0.65394  -0.65011
 Alpha  occ. eigenvalues --   -0.64759  -0.62110  -0.61289  -0.59744  -0.57969
 Alpha  occ. eigenvalues --   -0.55681  -0.55260  -0.53340  -0.53015  -0.52851
 Alpha  occ. eigenvalues --   -0.52610  -0.50269  -0.48796  -0.48793  -0.48275
 Alpha  occ. eigenvalues --   -0.46977  -0.46113  -0.46019  -0.44804  -0.44150
 Alpha  occ. eigenvalues --   -0.37247  -0.36383
 Alpha virt. eigenvalues --    0.05062   0.11266   0.16525   0.21035   0.22565
 Alpha virt. eigenvalues --    0.24002   0.26274   0.26887   0.27054   0.27425
 Alpha virt. eigenvalues --    0.28663   0.30645   0.30995   0.31491   0.32016

 Mulliken charges:
               1
     1  C   -0.167687
     2  C   -0.219533
     3  C   -0.171121
     4  C    0.157830
     5  C   -0.171206
     6  C   -0.219320
     7  H    0.228901
     8  H    0.223662
     9  H    0.275591
    10  H    0.275654
    11  H    0.223941
    12  N    0.488132
    13  O   -0.460568
    14  O   -0.460606
    15  C   -0.298962
    16  C   -0.299140
    17  C   -0.483360
    18  H    0.151771
    19  H    0.148036
    20  H    0.153688
    21  H    0.152223
    22  H    0.149708
    23  H    0.165470
    24  H    0.154010
    25  C   -0.298597
    26  C   -0.300125
    27  C   -0.475937
    28  H    0.150749
    29  H    0.149625
    30  H    0.153544
    31  H    0.151359
    32  H    0.154952
    33  H    0.156035
    34  H    0.161283
 Sum of Mulliken charges =  -0.00000

 Dipole moment (field-independent basis, Debye):
    X=              2.2715    Y=              4.5680    Z=              0.9492  Tot=              5.1892
 Quadrupole moment (field-independent basis, Debye-Ang):
   XX=           -110.0670   YY=            -98.0716   ZZ=            -90.1745
   XY=            -15.4338   XZ=             -1.2867   YZ=             -1.4992

 Normal termination of Gaussian 16 at Wed May  5 23:56:09 2021.
