 Gaussian 16, Revision A.03,
 Gaussian 16:  EM64L-G16RevA.03 25-Dec-2016

 -------------
 #p 6-31g* mp2
 -------------

 ------------------------------------------------------
 Input file generated by CHIRIPA (05-May-2021 14:57:22)
 ------------------------------------------------------
 Symbolic Z-matrix:
 Charge =  0 Multiplicity = 1

                         Standard orientation:
 ---------------------------------------------------------------------
 Center     Atomic      Atomic             Coordinates (Angstroms)
 Number     Number       Type             X           Y           Z
 ---------------------------------------------------------------------
      1          6           0       -1.749541   -0.158431    1.463754
      2          6           0       -1.971401    0.876792    0.549635
      3          6           0       -3.169177    0.945671   -0.168094
      4          6           0       -4.127697   -0.041827    0.054119
      5          6           0       -3.936244   -1.085709    0.957970
      6          6           0       -2.730941   -1.134656    1.664650
      7          1           0       -0.816156   -0.204195    2.017012
      8          1           0       -1.211015    1.636316    0.391577
      9          1           0       -3.367044    1.736107   -0.881870
     10          1           0       -4.713017   -1.828359    1.094035
     11          1           0       -2.561379   -1.939777    2.373928
     12          7           0       -5.399713    0.020541   -0.699860
     13          8           0       -6.228312   -0.861673   -0.485943
     14          8           0       -5.544035    0.950458   -1.490469
     15          6           0        3.245098    2.454720    0.196451
     16          6           0        2.288801    1.513364   -0.198347
     17          6           0        2.650350    0.179389   -0.408920
     18          6           0        3.983112   -0.180170   -0.214622
     19          6           0        4.959003    0.734389    0.178453
     20          6           0        4.574803    2.062919    0.383262
     21          1           0        2.955441    3.488869    0.357791
     22          1           0        1.255400    1.814793   -0.344182
     23          1           0        1.930406   -0.569970   -0.714800
     24          1           0        5.981406    0.403891    0.315863
     25          1           0        5.319613    2.791830    0.689843
     26          7           0        4.377857   -1.589507   -0.434495
     27          8           0        5.558559   -1.880934   -0.256593
     28          8           0        3.499081   -2.376033   -0.780569
 ---------------------------------------------------------------------

 SCF Done:  E(RHF) =  -868.336977389     A.U. after   16 cycles
 E2 =    -0.2599570725D+01 EUMP2 =    -0.87093654811403D+03

 The electronic state is 1-A.
 Alpha  occ. eigenvalues --  -20.61355 -20.61346 -20.61096 -20.61085 -15.86413
 Alpha  occ. eigenvalues --  -15.86153 -11.31892 -11.31620 -11.28526 -11.28459
 Alpha  occ. eigenvalues --  -11.28277 -11.28268 -11.28177 -11.28000 -11.27626
 Alpha  occ. eigenvalues --  -11.27472 -11.27390 -11.27178  -1.60428  -1.60167
 Alpha  occ. eigenvalues --   -1.39978  -1.39717  -1.20093  -1.19821  -1.09465
 Alpha  occ. eigenvalues --   -1.09198  -1.05523  -1.05251  -0.96273  -0.96007
 Alpha  occ. eigenvalues --   -0.86923  -0.86645  -0.83111  -0.82846  -0.78147
 Alpha  occ. eigenvalues --   -0.77869  -0.72626  -0.72369  -0.71756  -0.71491
 Alpha  occ. eigenvalues --   -0.71186  -0.70917  -0.65747  -0.65674  -0.65476
 Alpha  occ. eigenvalues --   -0.65191  -0.62912  -0.62545  -0.56010  -0.55741
 Alpha  occ. eigenvalues --   -0.53839  -0.53703  -0.53555  -0.53273  -0.49397
 Alpha  occ. eigenvalues --   -0.49375  -0.49137  -0.49116  -0.45358  -0.45100
 Alpha  occ. eigenvalues --   -0.38076  -0.37810  -0.37133  -0.36853
 Alpha virt. eigenvalues --    0.04404   0.04687   0.10493   0.10729   0.15815
 Alpha virt. eigenvalues --    0.16123   0.18374   0.21908   0.24577   0.27312
 Alpha virt. eigenvalues --    0.27890   0.28651   0.29373   0.31381   0.31884

 Mulliken charges:
               1
     1  C   -0.172391
     2  C   -0.223766
     3  C   -0.170082
     4  C    0.159064
     5  C   -0.169293
     6  C   -0.217682
     7  H    0.227748
     8  H    0.216048
     9  H    0.275766
    10  H    0.278092
    11  H    0.227263
    12  N    0.488095
    13  O   -0.458344
    14  O   -0.460204
    15  C   -0.170881
    16  C   -0.224364
    17  C   -0.174057
    18  C    0.159005
    19  C   -0.169717
    20  C   -0.218430
    21  H    0.227010
    22  H    0.219586
    23  H    0.277463
    24  H    0.277975
    25  H    0.226097
    26  N    0.487933
    27  O   -0.458310
    28  O   -0.459622
 Sum of Mulliken charges =  -0.00000

 Dipole moment (field-independent basis, Debye):
    X=              3.1343    Y=              4.6018    Z=              3.4802  Tot=              6.5660
 Quadrupole moment (field-independent basis, Debye-Ang):
   XX=           -146.9224   YY=           -103.6014   ZZ=           -104.8333
   XY=             24.0530   XZ=             -6.9828   YZ=             -3.3503

 Normal termination of Gaussian 16 at Thu May  6 06:30:34 2021.
