 Gaussian 16, Revision A.03,
 Gaussian 16:  EM64L-G16RevA.03 25-Dec-2016

 -------------
 #p 6-31g* mp2
 -------------

 ------------------------------------------------------
 Input file generated by CHIRIPA (05-May-2021 14:55:22)
 ------------------------------------------------------
 Symbolic Z-matrix:
 Charge =  0 Multiplicity = 1

                         Standard orientation:
 ---------------------------------------------------------------------
 Center     Atomic      Atomic             Coordinates (Angstroms)
 Number     Number       Type             X           Y           Z
 ---------------------------------------------------------------------
      1          6           0        5.352191   -1.732811    0.157447
      2          6           0        5.756025   -0.425960    0.449987
      3          6           0        4.851889    0.635705    0.350221
      4          6           0        3.545791    0.353215   -0.046765
      5          6           0        3.113189   -0.937986   -0.345003
      6          6           0        4.034385   -1.984210   -0.238417
      7          1           0        6.061171   -2.551541    0.237596
      8          1           0        6.778815   -0.227760    0.757658
      9          1           0        5.137830    1.656996    0.570719
     10          1           0        2.086931   -1.104361   -0.649193
     11          1           0        3.717964   -2.998124   -0.466233
     12          7           0        2.579592    1.468979   -0.155993
     13          8           0        1.434567    1.193764   -0.507859
     14          8           0        2.985606    2.597604    0.112329
     15          6           0       -5.397598   -0.228819    0.429315
     16          6           0       -6.627725    0.048611   -0.435443
     17          6           0       -7.930755    0.021045    0.364024
     18          1           0       -5.511363   -1.208098    0.914100
     19          1           0       -5.349699    0.515654    1.236073
     20          1           0       -6.672525   -0.695328   -1.241149
     21          1           0       -6.510932    1.027259   -0.918377
     22          1           0       -7.911674    0.774728    1.157876
     23          1           0       -8.074186   -0.957646    0.833269
     24          1           0       -8.797320    0.221819   -0.273639
     25          6           0       -4.087284   -0.204649   -0.355682
     26          6           0       -2.857157   -0.482080    0.509075
     27          6           0       -1.554127   -0.454514   -0.290392
     28          1           0       -4.135184   -0.949123   -1.162441
     29          1           0       -3.973520    0.774630   -0.840468
     30          1           0       -2.973950   -1.460727    0.992009
     31          1           0       -2.812357    0.261860    1.314782
     32          1           0       -1.410695    0.524178   -0.759637
     33          1           0       -1.573207   -1.208197   -1.084242
     34          1           0       -0.687562   -0.655288    0.347272
 ---------------------------------------------------------------------

 SCF Done:  E(RHF) =  -669.535525111     A.U. after   15 cycles
 E2 =    -0.2091213488D+01 EUMP2 =    -0.67162673859899D+03

 The electronic state is 1-A.
 Alpha  occ. eigenvalues --  -20.60821 -20.60815 -15.85858 -11.31215 -11.27786
 Alpha  occ. eigenvalues --  -11.27770 -11.27530 -11.26801 -11.26790 -11.21197
 Alpha  occ. eigenvalues --  -11.20904 -11.20864 -11.20758 -11.20737 -11.20025
 Alpha  occ. eigenvalues --   -1.59893  -1.39447  -1.19389  -1.08789  -1.07869
 Alpha  occ. eigenvalues --   -1.04789  -1.02922  -0.95640  -0.95341  -0.86371
 Alpha  occ. eigenvalues --   -0.86188  -0.82457  -0.79006  -0.77694  -0.77475
 Alpha  occ. eigenvalues --   -0.72088  -0.71212  -0.70497  -0.65045  -0.64794
 Alpha  occ. eigenvalues --   -0.64500  -0.62137  -0.60312  -0.58750  -0.56974
 Alpha  occ. eigenvalues --   -0.55294  -0.54629  -0.53121  -0.52887  -0.52038
 Alpha  occ. eigenvalues --   -0.51779  -0.49309  -0.48836  -0.48810  -0.47307
 Alpha  occ. eigenvalues --   -0.46034  -0.45211  -0.45141  -0.44846  -0.43156
 Alpha  occ. eigenvalues --   -0.37372  -0.36393
 Alpha virt. eigenvalues --    0.05010   0.11246   0.16503   0.21185   0.23404
 Alpha virt. eigenvalues --    0.24720   0.26569   0.27206   0.27691   0.28035
 Alpha virt. eigenvalues --    0.29170   0.30487   0.31627   0.32014   0.32365

 Mulliken charges:
               1
     1  C   -0.170592
     2  C   -0.218675
     3  C   -0.170716
     4  C    0.157292
     5  C   -0.173125
     6  C   -0.219125
     7  H    0.225677
     8  H    0.223505
     9  H    0.275599
    10  H    0.279865
    11  H    0.223817
    12  N    0.492253
    13  O   -0.463015
    14  O   -0.460357
    15  C   -0.297762
    16  C   -0.299296
    17  C   -0.475404
    18  H    0.147540
    19  H    0.149774
    20  H    0.150711
    21  H    0.152587
    22  H    0.155176
    23  H    0.154031
    24  H    0.159174
    25  C   -0.298164
    26  C   -0.300789
    27  C   -0.473625
    28  H    0.146830
    29  H    0.152085
    30  H    0.145604
    31  H    0.153374
    32  H    0.173814
    33  H    0.143566
    34  H    0.158374
 Sum of Mulliken charges =  -0.00000

 Dipole moment (field-independent basis, Debye):
    X=              3.5843    Y=             -3.7918    Z=              0.3546  Tot=              5.2298
 Quadrupole moment (field-independent basis, Debye-Ang):
   XX=            -70.2178   YY=            -94.9422   ZZ=            -95.4866
   XY=            -10.6046   XZ=              2.9535   YZ=              1.5354

 Normal termination of Gaussian 16 at Wed May  5 15:59:55 2021.
