 Gaussian 16, Revision A.03,
 Gaussian 16:  EM64L-G16RevA.03 25-Dec-2016

 -------------
 #p 6-31g* mp2
 -------------

 ------------------------------------------------------
 Input file generated by CHIRIPA (05-May-2021 14:51:13)
 ------------------------------------------------------
 Symbolic Z-matrix:
 Charge =  0 Multiplicity = 1

                         Standard orientation:
 ---------------------------------------------------------------------
 Center     Atomic      Atomic             Coordinates (Angstroms)
 Number     Number       Type             X           Y           Z
 ---------------------------------------------------------------------
      1          6           0        2.471613    1.170617   -0.361061
      2          6           0        2.942731    2.238439    0.626759
      3          6           0        2.348100    3.616635    0.335585
      4          1           0        2.740067    1.479397   -1.380635
      5          1           0        1.374799    1.111562   -0.330938
      6          1           0        4.038411    2.294494    0.595788
      7          1           0        2.673294    1.926989    1.644118
      8          1           0        1.254978    3.583072    0.386166
      9          1           0        2.627851    3.952665   -0.668120
     10          1           0        2.698140    4.364762    1.053665
     11          6           0        3.057493   -0.212557   -0.083026
     12          6           0        2.586375   -1.280379   -1.070846
     13          6           0        3.181005   -2.658576   -0.779671
     14          1           0        4.154307   -0.153503   -0.113148
     15          1           0        2.789039   -0.521337    0.936549
     16          1           0        2.855812   -0.968930   -2.088204
     17          1           0        1.490695   -1.336434   -1.039874
     18          1           0        2.901254   -2.994605    0.224034
     19          1           0        4.274128   -2.625013   -0.830252
     20          1           0        2.830966   -3.406702   -1.497751
     21          6           0       -2.265466   -0.680686    0.763964
     22          6           0       -1.362866   -1.844882    0.354154
     23          6           0       -0.369835   -2.236714    1.448754
     24          1           0       -1.641209    0.185739    1.021949
     25          1           0       -2.813188   -0.954085    1.676460
     26          1           0       -0.818043   -1.569894   -0.558077
     27          1           0       -1.989351   -2.708578    0.096931
     28          1           0       -0.898655   -2.536952    2.359143
     29          1           0        0.279309   -1.391799    1.700413
     30          1           0        0.265389   -3.070805    1.134679
     31          6           0       -3.263640   -0.277374   -0.319878
     32          6           0       -4.166240    0.886823    0.089933
     33          6           0       -5.159271    1.278655   -1.004668
     34          1           0       -2.715918   -0.003973   -1.232374
     35          1           0       -3.887897   -1.143799   -0.577862
     36          1           0       -3.539755    1.750518    0.347155
     37          1           0       -4.711063    0.611834    1.002164
     38          1           0       -5.808414    0.433739   -1.256327
     39          1           0       -4.630451    1.578892   -1.915057
     40          1           0       -5.794495    2.112745   -0.690594
 ---------------------------------------------------------------------

 SCF Done:  E(RHF) =  -470.732932255     A.U. after   11 cycles
 E2 =    -0.1584305025D+01 EUMP2 =    -0.47231723727993D+03

 The electronic state is 1-A.
 Alpha  occ. eigenvalues --  -11.21670 -11.21637 -11.21634 -11.21550 -11.21466
 Alpha  occ. eigenvalues --  -11.21428 -11.21401 -11.21351 -11.21144 -11.21105
 Alpha  occ. eigenvalues --  -11.21093 -11.21039  -1.08509  -1.08423  -1.03626
 Alpha  occ. eigenvalues --   -1.03495  -0.96047  -0.95976  -0.87053  -0.87002
 Alpha  occ. eigenvalues --   -0.79706  -0.79554  -0.78336  -0.78219  -0.65374
 Alpha  occ. eigenvalues --   -0.64878  -0.61265  -0.60689  -0.59393  -0.59335
 Alpha  occ. eigenvalues --   -0.57653  -0.57593  -0.55314  -0.55267  -0.52725
 Alpha  occ. eigenvalues --   -0.52676  -0.52474  -0.52387  -0.50013  -0.49906
 Alpha  occ. eigenvalues --   -0.48025  -0.47877  -0.46953  -0.46463  -0.45968
 Alpha  occ. eigenvalues --   -0.45826  -0.45715  -0.45447  -0.43828  -0.43789
 Alpha virt. eigenvalues --    0.19204   0.22916   0.23569   0.24776   0.25949
 Alpha virt. eigenvalues --    0.25995   0.26811   0.27614   0.28637   0.29453
 Alpha virt. eigenvalues --    0.30596   0.30946   0.31838   0.31982   0.32503

 Mulliken charges:
               1
     1  C   -0.299472
     2  C   -0.299589
     3  C   -0.475601
     4  H    0.149921
     5  H    0.148781
     6  H    0.152314
     7  H    0.151735
     8  H    0.154681
     9  H    0.155295
    10  H    0.160486
    11  C   -0.299911
    12  C   -0.307487
    13  C   -0.477342
    14  H    0.149687
    15  H    0.151696
    16  H    0.151517
    17  H    0.160710
    18  H    0.157301
    19  H    0.154981
    20  H    0.159736
    21  C   -0.298534
    22  C   -0.305802
    23  C   -0.480661
    24  H    0.149264
    25  H    0.149961
    26  H    0.156666
    27  H    0.152779
    28  H    0.155772
    29  H    0.157022
    30  H    0.163400
    31  C   -0.298511
    32  C   -0.299656
    33  C   -0.475777
    34  H    0.149822
    35  H    0.149915
    36  H    0.151856
    37  H    0.152018
    38  H    0.155242
    39  H    0.155377
    40  H    0.160408
 Sum of Mulliken charges =  -0.00000

 Dipole moment (field-independent basis, Debye):
    X=             -0.0222    Y=             -0.0176    Z=              0.0069  Tot=              0.0292
 Quadrupole moment (field-independent basis, Debye-Ang):
   XX=            -84.3676   YY=            -85.5314   ZZ=            -84.7668
   XY=              1.3515   XZ=             -1.2724   YZ=             -0.0604

 Normal termination of Gaussian 16 at Wed May  5 21:35:27 2021.
