 Gaussian 16, Revision A.03,
 Gaussian 16:  EM64L-G16RevA.03 25-Dec-2016

 -------------
 #p 6-31g* mp2
 -------------

 ------------------------------------------------------
 Input file generated by CHIRIPA (05-May-2021 14:51:08)
 ------------------------------------------------------
 Symbolic Z-matrix:
 Charge =  0 Multiplicity = 1

                         Standard orientation:
 ---------------------------------------------------------------------
 Center     Atomic      Atomic             Coordinates (Angstroms)
 Number     Number       Type             X           Y           Z
 ---------------------------------------------------------------------
      1          6           0        3.350651    0.243305   -0.288416
      2          6           0        2.027935   -0.405853    0.120243
      3          6           0        0.809235    0.364216   -0.389226
      4          1           0        3.379831    1.272989    0.093479
      5          1           0        3.392798    0.314985   -1.384080
      6          1           0        1.988897   -0.477547    1.214753
      7          1           0        2.001982   -1.434175   -0.262506
      8          1           0        0.820759    0.424163   -1.482329
      9          1           0        0.807599    1.386226    0.003323
     10          1           0       -0.125583   -0.117288   -0.085699
     11          6           0        4.578178   -0.514975    0.213497
     12          6           0        5.900894    0.134183   -0.195161
     13          6           0        7.119594   -0.635886    0.314307
     14          1           0        4.536031   -0.586655    1.309161
     15          1           0        4.548998   -1.544659   -0.168398
     16          1           0        5.926847    1.162505    0.187587
     17          1           0        5.939932    0.205877   -1.289671
     18          1           0        7.121230   -1.657896   -0.078241
     19          1           0        7.108070   -0.695833    1.407411
     20          1           0        8.054412   -0.154382    0.010780
     21          6           0       -3.989126    0.845885    0.317905
     22          6           0       -2.971008    1.787804   -0.325687
     23          6           0       -3.032673    3.204611    0.245846
     24          1           0       -4.998584    1.255939    0.177211
     25          1           0       -3.813473    0.812871    1.402087
     26          1           0       -3.147651    1.817959   -1.408510
     27          1           0       -1.963872    1.375364   -0.183611
     28          1           0       -2.834744    3.194619    1.322565
     29          1           0       -4.025248    3.639729    0.090707
     30          1           0       -2.296528    3.861188   -0.228343
     31          6           0       -3.939703   -0.574215   -0.242987
     32          6           0       -4.957821   -1.516134    0.400606
     33          6           0       -4.896155   -2.932941   -0.170928
     34          1           0       -4.115357   -0.541201   -1.327169
     35          1           0       -2.930246   -0.984269   -0.102292
     36          1           0       -5.964956   -1.103694    0.258529
     37          1           0       -4.781179   -1.546290    1.483428
     38          1           0       -3.903581   -3.368060   -0.015789
     39          1           0       -5.094085   -2.922949   -1.247647
     40          1           0       -5.632301   -3.589518    0.303262
 ---------------------------------------------------------------------

 SCF Done:  E(RHF) =  -470.732906396     A.U. after   11 cycles
 E2 =    -0.1582920407D+01 EUMP2 =    -0.47231582680261D+03

 The electronic state is 1-A.
 Alpha  occ. eigenvalues --  -11.21647 -11.21621 -11.21582 -11.21436 -11.21422
 Alpha  occ. eigenvalues --  -11.21376 -11.21367 -11.21289 -11.21134 -11.21087
 Alpha  occ. eigenvalues --  -11.21058 -11.20986  -1.08466  -1.08373  -1.03577
 Alpha  occ. eigenvalues --   -1.03459  -0.96028  -0.95924  -0.87062  -0.86930
 Alpha  occ. eigenvalues --   -0.79698  -0.79477  -0.78286  -0.78169  -0.65098
 Alpha  occ. eigenvalues --   -0.65017  -0.60994  -0.60862  -0.59443  -0.59241
 Alpha  occ. eigenvalues --   -0.57639  -0.57529  -0.55321  -0.55204  -0.52817
 Alpha  occ. eigenvalues --   -0.52584  -0.52444  -0.52339  -0.49979  -0.49849
 Alpha  occ. eigenvalues --   -0.47955  -0.47839  -0.46700  -0.46525  -0.45837
 Alpha  occ. eigenvalues --   -0.45746  -0.45715  -0.45650  -0.43762  -0.43675
 Alpha virt. eigenvalues --    0.21513   0.23009   0.23986   0.24431   0.25673
 Alpha virt. eigenvalues --    0.26601   0.27114   0.27222   0.27851   0.28945
 Alpha virt. eigenvalues --    0.30873   0.31402   0.31552   0.31865   0.32186

 Mulliken charges:
               1
     1  C   -0.298762
     2  C   -0.299827
     3  C   -0.479706
     4  H    0.149789
     5  H    0.149688
     6  H    0.151872
     7  H    0.152091
     8  H    0.156537
     9  H    0.155842
    10  H    0.162751
    11  C   -0.298313
    12  C   -0.299645
    13  C   -0.475721
    14  H    0.149534
    15  H    0.149722
    16  H    0.151990
    17  H    0.151993
    18  H    0.155214
    19  H    0.155197
    20  H    0.160336
    21  C   -0.297652
    22  C   -0.310275
    23  C   -0.475146
    24  H    0.149288
    25  H    0.148778
    26  H    0.150974
    27  H    0.165824
    28  H    0.154391
    29  H    0.154634
    30  H    0.159803
    31  C   -0.300407
    32  C   -0.299559
    33  C   -0.475671
    34  H    0.149746
    35  H    0.150368
    36  H    0.152122
    37  H    0.151818
    38  H    0.155005
    39  H    0.155183
    40  H    0.160194
 Sum of Mulliken charges =  -0.00000

 Dipole moment (field-independent basis, Debye):
    X=              0.0528    Y=             -0.0097    Z=             -0.0142  Tot=              0.0555
 Quadrupole moment (field-independent basis, Debye-Ang):
   XX=            -85.4384   YY=            -85.8533   ZZ=            -83.7151
   XY=              0.2506   XZ=              0.1886   YZ=              0.0988

 Normal termination of Gaussian 16 at Thu May  6 00:31:42 2021.
