 Gaussian 16, Revision A.03,
 Gaussian 16:  EM64L-G16RevA.03 25-Dec-2016

 -------------
 #p 6-31g* mp2
 -------------

 ------------------------------------------------------
 Input file generated by CHIRIPA (05-May-2021 14:57:21)
 ------------------------------------------------------
 Symbolic Z-matrix:
 Charge =  0 Multiplicity = 1

                         Standard orientation:
 ---------------------------------------------------------------------
 Center     Atomic      Atomic             Coordinates (Angstroms)
 Number     Number       Type             X           Y           Z
 ---------------------------------------------------------------------
      1          6           0       -3.457701    1.857366    1.710829
      2          6           0       -4.611195    1.080990    1.558476
      3          6           0       -4.649673    0.042485    0.623288
      4          6           0       -3.511501   -0.193046   -0.146374
      5          6           0       -2.347315    0.562912   -0.017975
      6          6           0       -2.331428    1.596310    0.923505
      7          1           0       -3.436586    2.662118    2.439749
      8          1           0       -5.487357    1.281457    2.168556
      9          1           0       -5.529494   -0.574059    0.484701
     10          1           0       -1.489542    0.339135   -0.640525
     11          1           0       -1.434228    2.197630    1.039660
     12          7           0       -3.540278   -1.289761   -1.139747
     13          8           0       -2.524352   -1.477052   -1.805670
     14          8           0       -4.578213   -1.941309   -1.233619
     15          6           0        2.883523    1.819940   -1.663528
     16          6           0        4.229656    1.556418   -1.389656
     17          6           0        4.586606    0.557187   -0.479343
     18          6           0        3.567010   -0.162462    0.141802
     19          6           0        2.216910    0.076491   -0.110032
     20          6           0        1.883211    1.080440   -1.023970
     21          1           0        2.615266    2.597999   -2.372089
     22          1           0        5.008635    2.129139   -1.884860
     23          1           0        5.620870    0.332353   -0.248763
     24          1           0        1.462761   -0.511124    0.399266
     25          1           0        0.836962    1.282911   -1.234716
     26          7           0        3.932591   -1.222800    1.107428
     27          8           0        3.015436   -1.842715    1.641439
     28          8           0        5.129367   -1.413902    1.311990
 ---------------------------------------------------------------------

 SCF Done:  E(RHF) =  -868.336815652     A.U. after   16 cycles
 E2 =    -0.2599887920D+01 EUMP2 =    -0.87093670357242D+03

 The electronic state is 1-A.
 Alpha  occ. eigenvalues --  -20.61201 -20.61185 -20.60908 -20.60901 -15.86252
 Alpha  occ. eigenvalues --  -15.85967 -11.31715 -11.31429 -11.28405 -11.28216
 Alpha  occ. eigenvalues --  -11.28063 -11.28009 -11.27979 -11.27804 -11.27356
 Alpha  occ. eigenvalues --  -11.27241 -11.27162 -11.27021  -1.60266  -1.59982
 Alpha  occ. eigenvalues --   -1.39820  -1.39532  -1.19876  -1.19628  -1.09237
 Alpha  occ. eigenvalues --   -1.09002  -1.05315  -1.05062  -0.96070  -0.95815
 Alpha  occ. eigenvalues --   -0.86693  -0.86453  -0.82918  -0.82659  -0.77982
 Alpha  occ. eigenvalues --   -0.77674  -0.72468  -0.72183  -0.71587  -0.71307
 Alpha  occ. eigenvalues --   -0.70992  -0.70722  -0.65537  -0.65339  -0.65280
 Alpha  occ. eigenvalues --   -0.65083  -0.62801  -0.62284  -0.55770  -0.55538
 Alpha  occ. eigenvalues --   -0.53603  -0.53441  -0.53355  -0.53142  -0.49235
 Alpha  occ. eigenvalues --   -0.49218  -0.48952  -0.48931  -0.45205  -0.44917
 Alpha  occ. eigenvalues --   -0.37818  -0.37602  -0.36910  -0.36664
 Alpha virt. eigenvalues --    0.04590   0.04869   0.10742   0.10986   0.16086
 Alpha virt. eigenvalues --    0.16304   0.18032   0.22061   0.24455   0.27399
 Alpha virt. eigenvalues --    0.27970   0.29264   0.30395   0.31097   0.32169

 Mulliken charges:
               1
     1  C   -0.170103
     2  C   -0.217737
     3  C   -0.169415
     4  C    0.162237
     5  C   -0.179450
     6  C   -0.218471
     7  H    0.227947
     8  H    0.226091
     9  H    0.277828
    10  H    0.270947
    11  H    0.221374
    12  N    0.487913
    13  O   -0.461774
    14  O   -0.457199
    15  C   -0.170276
    16  C   -0.218573
    17  C   -0.169793
    18  C    0.158630
    19  C   -0.170543
    20  C   -0.221988
    21  H    0.227010
    22  H    0.224724
    23  H    0.276915
    24  H    0.276040
    25  H    0.218266
    26  N    0.488092
    27  O   -0.458903
    28  O   -0.459791
 Sum of Mulliken charges =  -0.00000

 Dipole moment (field-independent basis, Debye):
    X=             -1.2658    Y=              7.5544    Z=              0.1735  Tot=              7.6617
 Quadrupole moment (field-independent basis, Debye-Ang):
   XX=           -103.8828   YY=           -108.3950   ZZ=           -107.5962
   XY=              2.2120   XZ=            -27.5643   YZ=             -0.5667

 Normal termination of Gaussian 16 at Thu May  6 14:31:45 2021.
