 Gaussian 16, Revision A.03,
 Gaussian 16:  EM64L-G16RevA.03 25-Dec-2016

 -------------
 #p 6-31g* mp2
 -------------

 ------------------------------------------------------
 Input file generated by CHIRIPA (05-May-2021 14:57:21)
 ------------------------------------------------------
 Symbolic Z-matrix:
 Charge =  0 Multiplicity = 1

                         Standard orientation:
 ---------------------------------------------------------------------
 Center     Atomic      Atomic             Coordinates (Angstroms)
 Number     Number       Type             X           Y           Z
 ---------------------------------------------------------------------
      1          6           0        2.595715    2.835167    0.261870
      2          6           0        2.327652    2.011748    1.360344
      3          6           0        2.484500    0.625877    1.263868
      4          6           0        2.912989    0.094725    0.048317
      5          6           0        3.188058    0.888731   -1.063970
      6          6           0        3.024307    2.272023   -0.944654
      7          1           0        2.471190    3.910743    0.345686
      8          1           0        1.994665    2.446325    2.298591
      9          1           0        2.284026   -0.034870    2.098519
     10          1           0        3.518561    0.426362   -1.986141
     11          1           0        3.233227    2.909061   -1.799394
     12          7           0        3.082691   -1.371070   -0.065908
     13          8           0        3.461402   -1.814395   -1.147886
     14          8           0        2.833779   -2.048879    0.928705
     15          6           0       -0.973037   -1.979810    0.028450
     16          6           0       -1.353389   -1.418836   -1.195136
     17          6           0       -2.411303   -0.507154   -1.259964
     18          6           0       -3.069864   -0.177417   -0.076384
     19          6           0       -2.714491   -0.719240    1.157890
     20          6           0       -1.653603   -1.628841    1.198994
     21          1           0       -0.150070   -2.687219    0.069595
     22          1           0       -0.826657   -1.689560   -2.105799
     23          1           0       -2.726566   -0.057786   -2.193824
     24          1           0       -3.258571   -0.429933    2.048786
     25          1           0       -1.360398   -2.062920    2.150650
     26          7           0       -4.191404    0.786637   -0.132457
     27          8           0       -4.755550    1.060726    0.924544
     28          8           0       -4.485084    1.249921   -1.232347
 ---------------------------------------------------------------------

 SCF Done:  E(RHF) =  -868.340073913     A.U. after   16 cycles
 E2 =    -0.2599320435D+01 EUMP2 =    -0.87093939434807D+03

 The electronic state is 1-A.
 Alpha  occ. eigenvalues --  -20.61728 -20.61701 -20.60700 -20.60694 -15.86738
 Alpha  occ. eigenvalues --  -15.85749 -11.31784 -11.30983 -11.28325 -11.28316
 Alpha  occ. eigenvalues --  -11.27970 -11.27553 -11.27543 -11.27245 -11.27234
 Alpha  occ. eigenvalues --  -11.27074 -11.26466 -11.26448  -1.60793  -1.59780
 Alpha  occ. eigenvalues --   -1.40352  -1.39337  -1.19922  -1.19129  -1.09373
 Alpha  occ. eigenvalues --   -1.08513  -1.05279  -1.04519  -0.96262  -0.95374
 Alpha  occ. eigenvalues --   -0.86691  -0.85899  -0.83108  -0.82221  -0.78200
 Alpha  occ. eigenvalues --   -0.77319  -0.72961  -0.72135  -0.71966  -0.71106
 Alpha  occ. eigenvalues --   -0.71022  -0.70108  -0.65577  -0.65275  -0.64760
 Alpha  occ. eigenvalues --   -0.64491  -0.62639  -0.61873  -0.55774  -0.54877
 Alpha  occ. eigenvalues --   -0.53625  -0.53368  -0.52846  -0.52586  -0.49738
 Alpha  occ. eigenvalues --   -0.49691  -0.48732  -0.48711  -0.45820  -0.44773
 Alpha  occ. eigenvalues --   -0.37890  -0.37065  -0.36837  -0.36144
 Alpha virt. eigenvalues --    0.04284   0.05210   0.10766   0.11536   0.15853
 Alpha virt. eigenvalues --    0.16753   0.20928   0.21891   0.26834   0.27560
 Alpha virt. eigenvalues --    0.27859   0.28853   0.30640   0.31536   0.31924

 Mulliken charges:
               1
     1  C   -0.169000
     2  C   -0.217668
     3  C   -0.168869
     4  C    0.158004
     5  C   -0.171706
     6  C   -0.218230
     7  H    0.229256
     8  H    0.225945
     9  H    0.272904
    10  H    0.274951
    11  H    0.225714
    12  N    0.486560
    13  O   -0.459566
    14  O   -0.466266
    15  C   -0.178494
    16  C   -0.221323
    17  C   -0.171621
    18  C    0.157423
    19  C   -0.172854
    20  C   -0.221662
    21  H    0.244020
    22  H    0.226459
    23  H    0.273714
    24  H    0.273270
    25  H    0.225012
    26  N    0.488046
    27  O   -0.462184
    28  O   -0.461835
 Sum of Mulliken charges =  -0.00000

 Dipole moment (field-independent basis, Debye):
    X=              3.5773    Y=              1.8435    Z=              0.5861  Tot=              4.0669
 Quadrupole moment (field-independent basis, Debye-Ang):
   XX=           -134.2246   YY=           -103.2021   ZZ=            -95.4234
   XY=             25.6394   XZ=             -2.1159   YZ=             -0.4780

 Normal termination of Gaussian 16 at Thu May  6 09:39:32 2021.
