 Gaussian 16, Revision A.03,
 Gaussian 16:  EM64L-G16RevA.03 25-Dec-2016

 -------------
 #p 6-31g* mp2
 -------------

 ------------------------------------------------------
 Input file generated by CHIRIPA (05-May-2021 14:57:26)
 ------------------------------------------------------
 Symbolic Z-matrix:
 Charge =  0 Multiplicity = 1

                         Standard orientation:
 ---------------------------------------------------------------------
 Center     Atomic      Atomic             Coordinates (Angstroms)
 Number     Number       Type             X           Y           Z
 ---------------------------------------------------------------------
      1          6           0       -0.728173   -1.584962   -1.010126
      2          6           0       -1.805580   -2.250400   -0.416066
      3          6           0       -2.924306   -1.537513    0.025287
      4          6           0       -2.932223   -0.153825   -0.143929
      5          6           0       -1.874359    0.537828   -0.732001
      6          6           0       -0.765934   -0.195422   -1.165924
      7          1           0        0.136879   -2.146659   -1.350094
      8          1           0       -1.779001   -3.329466   -0.293777
      9          1           0       -3.772147   -2.027383    0.488548
     10          1           0       -1.929803    1.614221   -0.840268
     11          1           0        0.069353    0.324016   -1.626927
     12          7           0       -4.111115    0.611655    0.319378
     13          8           0       -4.093649    1.830072    0.158785
     14          8           0       -5.030275   -0.021274    0.834339
     15          6           0        3.191102   -2.177298    0.570018
     16          6           0        3.421303   -1.594055   -0.680324
     17          6           0        3.173733   -0.233488   -0.885533
     18          6           0        2.694116    0.517547    0.186478
     19          6           0        2.454821   -0.034529    1.443952
     20          6           0        2.709445   -1.397048    1.626303
     21          1           0        3.386160   -3.234979    0.720551
     22          1           0        3.795340   -2.197571   -1.502462
     23          1           0        3.343175    0.243651   -1.843159
     24          1           0        2.081698    0.592763    2.244391
     25          1           0        2.529748   -1.847319    2.598420
     26          7           0        2.428291    1.958952   -0.018670
     27          8           0        2.005971    2.598936    0.941906
     28          8           0        2.647291    2.421451   -1.136154
 ---------------------------------------------------------------------

 SCF Done:  E(RHF) =  -868.337779322     A.U. after   16 cycles
 E2 =    -0.2602383071D+01 EUMP2 =    -0.87094016239318D+03

 The electronic state is 1-A.
 Alpha  occ. eigenvalues --  -20.61701 -20.61665 -20.60583 -20.60559 -15.86715
 Alpha  occ. eigenvalues --  -15.85629 -11.32142 -11.31030 -11.28768 -11.28648
 Alpha  occ. eigenvalues --  -11.28475 -11.27810 -11.27679 -11.27667 -11.27551
 Alpha  occ. eigenvalues --  -11.27389 -11.26701 -11.26575  -1.60757  -1.59651
 Alpha  occ. eigenvalues --   -1.40304  -1.39201  -1.20340  -1.19224  -1.09721
 Alpha  occ. eigenvalues --   -1.08617  -1.05735  -1.04632  -0.96535  -0.95437
 Alpha  occ. eigenvalues --   -0.87127  -0.86034  -0.83351  -0.82268  -0.78392
 Alpha  occ. eigenvalues --   -0.77307  -0.72921  -0.72109  -0.71844  -0.71417
 Alpha  occ. eigenvalues --   -0.70977  -0.70336  -0.65976  -0.65712  -0.64875
 Alpha  occ. eigenvalues --   -0.64652  -0.63059  -0.61972  -0.56220  -0.55189
 Alpha  occ. eigenvalues --   -0.54129  -0.53802  -0.52893  -0.52696  -0.49701
 Alpha  occ. eigenvalues --   -0.49680  -0.48615  -0.48594  -0.45679  -0.44598
 Alpha  occ. eigenvalues --   -0.38357  -0.37377  -0.37169  -0.36201
 Alpha virt. eigenvalues --    0.04101   0.05233   0.10187   0.11377   0.15600
 Alpha virt. eigenvalues --    0.16688   0.20458   0.21485   0.26361   0.26973
 Alpha virt. eigenvalues --    0.27644   0.28330   0.29883   0.30899   0.31943

 Mulliken charges:
               1
     1  C   -0.169231
     2  C   -0.220594
     3  C   -0.171526
     4  C    0.157695
     5  C   -0.170270
     6  C   -0.225188
     7  H    0.221778
     8  H    0.219388
     9  H    0.274380
    10  H    0.282243
    11  H    0.226416
    12  N    0.487905
    13  O   -0.457282
    14  O   -0.462461
    15  C   -0.173516
    16  C   -0.223762
    17  C   -0.181042
    18  C    0.159338
    19  C   -0.166662
    20  C   -0.216727
    21  H    0.227856
    22  H    0.225322
    23  H    0.276562
    24  H    0.280414
    25  H    0.227770
    26  N    0.486286
    27  O   -0.453015
    28  O   -0.462078
 Sum of Mulliken charges =  -0.00000

 Dipole moment (field-independent basis, Debye):
    X=              5.2515    Y=             -7.5917    Z=             -0.6851  Tot=              9.2564
 Quadrupole moment (field-independent basis, Debye-Ang):
   XX=           -123.9918   YY=           -106.3664   ZZ=            -99.6726
   XY=             -4.3971   XZ=              4.4756   YZ=             -1.1067

 Normal termination of Gaussian 16 at Thu May  6 14:48:17 2021.
