 Gaussian 16, Revision A.03,
 Gaussian 16:  EM64L-G16RevA.03 25-Dec-2016

 -------------
 #p 6-31g* mp2
 -------------

 ------------------------------------------------------
 Input file generated by CHIRIPA (05-May-2021 14:53:17)
 ------------------------------------------------------
 Symbolic Z-matrix:
 Charge =  0 Multiplicity = 1

                         Standard orientation:
 ---------------------------------------------------------------------
 Center     Atomic      Atomic             Coordinates (Angstroms)
 Number     Number       Type             X           Y           Z
 ---------------------------------------------------------------------
      1          6           0        2.611476    1.545578    0.004836
      2          6           0        1.361561    2.382341   -0.269980
      3          6           0        1.606825    3.882642   -0.106460
      4          1           0        2.966146    1.751645    1.023998
      5          1           0        3.413750    1.863196   -0.675510
      6          1           0        0.561459    2.062296    0.409743
      7          1           0        1.009715    2.174115   -1.288539
      8          1           0        2.386751    4.222828   -0.795364
      9          1           0        1.935948    4.110374    0.912568
     10          1           0        0.700263    4.461907   -0.307603
     11          6           0        2.382168    0.043669   -0.154579
     12          6           0        3.632083   -0.793094    0.120238
     13          6           0        3.386819   -2.293395   -0.043283
     14          1           0        1.579894   -0.273949    0.525767
     15          1           0        2.027498   -0.162398   -1.173741
     16          1           0        3.983929   -0.584868    1.138797
     17          1           0        4.432185   -0.473049   -0.559486
     18          1           0        3.057696   -2.521127   -1.062310
     19          1           0        2.606893   -2.633581    0.645621
     20          1           0        4.293381   -2.872660    0.157861
     21          6           0       -3.482648    1.383768    0.082816
     22          6           0       -2.832661    0.985231    1.255507
     23          6           0       -1.981570   -0.123908    1.253718
     24          6           0       -1.802534   -0.814594    0.056142
     25          6           0       -2.435926   -0.442248   -1.128536
     26          6           0       -3.282559    0.670015   -1.103373
     27          1           0       -4.142063    2.246587    0.093285
     28          1           0       -2.986174    1.537650    2.178174
     29          1           0       -1.465838   -0.454260    2.147199
     30          1           0       -2.263097   -1.012851   -2.032948
     31          1           0       -3.786033    0.977237   -2.015607
     32          7           0       -0.903882   -1.990443    0.041875
     33          8           0       -0.762867   -2.582117   -1.026149
     34          8           0       -0.357550   -2.298136    1.098986
 ---------------------------------------------------------------------

 SCF Done:  E(RHF) =  -669.536681735     A.U. after   15 cycles
 E2 =    -0.2094017141D+01 EUMP2 =    -0.67163069887559D+03

 The electronic state is 1-A.
 Alpha  occ. eigenvalues --  -20.61018 -20.61002 -15.86000 -11.31310 -11.27885
 Alpha  occ. eigenvalues --  -11.27859 -11.27599 -11.26887 -11.26861 -11.21423
 Alpha  occ. eigenvalues --  -11.21056 -11.20975 -11.20703 -11.20633 -11.19623
 Alpha  occ. eigenvalues --   -1.60041  -1.39605  -1.19473  -1.08879  -1.07887
 Alpha  occ. eigenvalues --   -1.04871  -1.02909  -0.95729  -0.95339  -0.86353
 Alpha  occ. eigenvalues --   -0.86271  -0.82570  -0.79034  -0.77696  -0.77595
 Alpha  occ. eigenvalues --   -0.72241  -0.71330  -0.70585  -0.65137  -0.64874
 Alpha  occ. eigenvalues --   -0.64522  -0.62222  -0.60309  -0.58813  -0.56937
 Alpha  occ. eigenvalues --   -0.55375  -0.54615  -0.53202  -0.52963  -0.52054
 Alpha  occ. eigenvalues --   -0.51751  -0.49345  -0.49005  -0.48927  -0.47282
 Alpha  occ. eigenvalues --   -0.46087  -0.45591  -0.45155  -0.44435  -0.43178
 Alpha  occ. eigenvalues --   -0.37431  -0.36450
 Alpha virt. eigenvalues --    0.04863   0.11145   0.16332   0.21280   0.23285
 Alpha virt. eigenvalues --    0.25042   0.26783   0.27379   0.27550   0.28380
 Alpha virt. eigenvalues --    0.28760   0.30905   0.31966   0.32077   0.32454

 Mulliken charges:
               1
     1  C   -0.297147
     2  C   -0.300598
     3  C   -0.474861
     4  H    0.147858
     5  H    0.148451
     6  H    0.149545
     7  H    0.150238
     8  H    0.155835
     9  H    0.154174
    10  H    0.155599
    11  C   -0.305866
    12  C   -0.298025
    13  C   -0.483319
    14  H    0.154565
    15  H    0.149573
    16  H    0.148372
    17  H    0.147058
    18  H    0.157403
    19  H    0.177524
    20  H    0.153084
    21  C   -0.170055
    22  C   -0.218318
    23  C   -0.172409
    24  C    0.160488
    25  C   -0.170284
    26  C   -0.218093
    27  H    0.226190
    28  H    0.224117
    29  H    0.275626
    30  H    0.275748
    31  H    0.223912
    32  N    0.490203
    33  O   -0.456870
    34  O   -0.459720
 Sum of Mulliken charges =  -0.00000

 Dipole moment (field-independent basis, Debye):
    X=             -3.4011    Y=              3.9170    Z=              0.0518  Tot=              5.1878
 Quadrupole moment (field-independent basis, Debye-Ang):
   XX=            -84.3317   YY=           -103.5093   ZZ=            -89.0211
   XY=             -5.1443   XZ=              0.6217   YZ=              0.7743

 Normal termination of Gaussian 16 at Thu May  6 02:47:36 2021.
