 Gaussian 16, Revision A.03,
 Gaussian 16:  EM64L-G16RevA.03 25-Dec-2016

 -------------
 #p 6-31g* mp2
 -------------

 ------------------------------------------------------
 Input file generated by CHIRIPA (05-May-2021 14:53:16)
 ------------------------------------------------------
 Symbolic Z-matrix:
 Charge =  0 Multiplicity = 1

                         Standard orientation:
 ---------------------------------------------------------------------
 Center     Atomic      Atomic             Coordinates (Angstroms)
 Number     Number       Type             X           Y           Z
 ---------------------------------------------------------------------
      1          6           0       -4.378425    0.224950   -0.401100
      2          6           0       -4.789102   -1.111586    0.217771
      3          6           0       -6.184525   -1.560468   -0.217078
      4          1           0       -5.114761    0.991742   -0.123998
      5          1           0       -4.412637    0.139974   -1.496090
      6          1           0       -4.752790   -1.024527    1.311260
      7          1           0       -4.051600   -1.875244   -0.060678
      8          1           0       -6.230737   -1.675214   -1.304874
      9          1           0       -6.935912   -0.819663    0.074859
     10          1           0       -6.457880   -2.518047    0.236991
     11          6           0       -2.985804    0.687016    0.024142
     12          6           0       -2.575128    2.023553   -0.594729
     13          6           0       -1.179705    2.472434   -0.159880
     14          1           0       -2.951592    0.771993    1.119132
     15          1           0       -2.249469   -0.079776   -0.252960
     16          1           0       -3.312630    2.787211   -0.316280
     17          1           0       -2.611440    1.936494   -1.688218
     18          1           0       -0.428318    1.731630   -0.451817
     19          1           0       -1.133492    2.587180    0.927916
     20          1           0       -0.906350    3.430014   -0.613949
     21          6           0        5.137434   -0.141533   -0.952155
     22          6           0        4.061457   -0.682138   -1.663872
     23          6           0        2.804345   -0.805868   -1.064783
     24          6           0        2.658088   -0.376994    0.253536
     25          6           0        3.710735    0.165739    0.988836
     26          6           0        4.958954    0.279937    0.369597
     27          1           0        6.110535   -0.049119   -1.425367
     28          1           0        4.197149   -1.010285   -2.690494
     29          1           0        1.954263   -1.220754   -1.592654
     30          1           0        3.544706    0.484126    2.010835
     31          1           0        5.792780    0.700158    0.924750
     32          7           0        1.331947   -0.502935    0.898429
     33          8           0        1.229068   -0.117730    2.061043
     34          8           0        0.420507   -0.984470    0.229073
 ---------------------------------------------------------------------

 SCF Done:  E(RHF) =  -669.536097349     A.U. after   15 cycles
 E2 =    -0.2092190584D+01 EUMP2 =    -0.67162828793332D+03

 The electronic state is 1-A.
 Alpha  occ. eigenvalues --  -20.61009 -20.60998 -15.86013 -11.31316 -11.27880
 Alpha  occ. eigenvalues --  -11.27869 -11.27608 -11.26878 -11.26867 -11.20562
 Alpha  occ. eigenvalues --  -11.20500 -11.20270 -11.20263 -11.19997 -11.19811
 Alpha  occ. eigenvalues --   -1.60050  -1.39611  -1.19480  -1.08890  -1.07241
 Alpha  occ. eigenvalues --   -1.04874  -1.02471  -0.95737  -0.94915  -0.86276
 Alpha  occ. eigenvalues --   -0.85940  -0.82577  -0.78543  -0.77633  -0.76994
 Alpha  occ. eigenvalues --   -0.72249  -0.71364  -0.70591  -0.65140  -0.64877
 Alpha  occ. eigenvalues --   -0.63875  -0.62222  -0.59882  -0.58285  -0.56517
 Alpha  occ. eigenvalues --   -0.55380  -0.54206  -0.53204  -0.52966  -0.51679
 Alpha  occ. eigenvalues --   -0.51332  -0.49061  -0.49002  -0.48839  -0.46853
 Alpha  occ. eigenvalues --   -0.45660  -0.45088  -0.44543  -0.44204  -0.42678
 Alpha  occ. eigenvalues --   -0.37455  -0.36472
 Alpha virt. eigenvalues --    0.04872   0.11176   0.16332   0.21297   0.24025
 Alpha virt. eigenvalues --    0.25310   0.27228   0.27738   0.28156   0.28727
 Alpha virt. eigenvalues --    0.29005   0.30864   0.32095   0.32612   0.32737

 Mulliken charges:
               1
     1  C   -0.297723
     2  C   -0.298870
     3  C   -0.475001
     4  H    0.144729
     5  H    0.144556
     6  H    0.152662
     7  H    0.155254
     8  H    0.152502
     9  H    0.152914
    10  H    0.157896
    11  C   -0.306537
    12  C   -0.298067
    13  C   -0.476088
    14  H    0.151412
    15  H    0.174666
    16  H    0.146851
    17  H    0.145843
    18  H    0.154932
    19  H    0.160072
    20  H    0.151341
    21  C   -0.170456
    22  C   -0.218450
    23  C   -0.171055
    24  C    0.157390
    25  C   -0.170191
    26  C   -0.218559
    27  H    0.226104
    28  H    0.223883
    29  H    0.275375
    30  H    0.276018
    31  H    0.223954
    32  N    0.490533
    33  O   -0.456932
    34  O   -0.460961
 Sum of Mulliken charges =  -0.00000

 Dipole moment (field-independent basis, Debye):
    X=              5.0093    Y=              0.2743    Z=             -2.1312  Tot=              5.4507
 Quadrupole moment (field-independent basis, Debye-Ang):
   XX=            -71.7693   YY=            -95.6802   ZZ=            -92.0049
   XY=             -0.0892   XZ=             -4.0650   YZ=              3.4639

 Normal termination of Gaussian 16 at Wed May  5 23:34:43 2021.
