 Gaussian 16, Revision A.03,
 Gaussian 16:  EM64L-G16RevA.03 25-Dec-2016

 -------------
 #p 6-31g* mp2
 -------------

 ------------------------------------------------------
 Input file generated by CHIRIPA (05-May-2021 14:55:25)
 ------------------------------------------------------
 Symbolic Z-matrix:
 Charge =  0 Multiplicity = 1

                         Standard orientation:
 ---------------------------------------------------------------------
 Center     Atomic      Atomic             Coordinates (Angstroms)
 Number     Number       Type             X           Y           Z
 ---------------------------------------------------------------------
      1          6           0        0.600337    0.083242    1.207002
      2          6           0        0.965362   -1.125580    0.605315
      3          6           0        2.233690   -1.281957    0.038360
      4          6           0        3.116005   -0.203984    0.091115
      5          6           0        2.781854    1.012879    0.683465
      6          6           0        1.508148    1.146739    1.244091
      7          1           0       -0.387020    0.195973    1.644968
      8          1           0        0.262394   -1.953206    0.575050
      9          1           0        2.542338   -2.206772   -0.433733
     10          1           0        3.504203    1.819980    0.698233
     11          1           0        1.227396    2.086680    1.710709
     12          7           0        4.461574   -0.357614   -0.505745
     13          8           0        5.220664    0.607209   -0.446265
     14          8           0        4.731664   -1.439942   -1.021742
     15          6           0       -4.288793   -0.262245   -0.208419
     16          6           0       -3.849544   -1.715930   -0.029973
     17          6           0       -5.029446   -2.686086    0.036547
     18          1           0       -4.950134    0.018937    0.622552
     19          1           0       -4.886781   -0.177241   -1.126341
     20          1           0       -3.251401   -1.797904    0.886608
     21          1           0       -3.189019   -1.993625   -0.861363
     22          1           0       -5.623465   -2.633734   -0.881604
     23          1           0       -5.686201   -2.436902    0.876298
     24          1           0       -4.692699   -3.719595    0.164287
     25          6           0       -3.120460    0.719624   -0.276663
     26          6           0       -3.559708    2.173310   -0.455109
     27          6           0       -2.379807    3.143464   -0.521628
     28          1           0       -2.522472    0.634621    0.641259
     29          1           0       -2.459119    0.438443   -1.107633
     30          1           0       -4.220234    2.451005    0.376281
     31          1           0       -4.157852    2.255283   -1.371690
     32          1           0       -1.723052    2.894281   -1.361379
     33          1           0       -1.785788    3.091113    0.396523
     34          1           0       -2.716554    4.176975   -0.649368
 ---------------------------------------------------------------------

 SCF Done:  E(RHF) =  -669.535423860     A.U. after   15 cycles
 E2 =    -0.2091832985D+01 EUMP2 =    -0.67162725684524D+03

 The electronic state is 1-A.
 Alpha  occ. eigenvalues --  -20.60716 -20.60711 -15.85770 -11.31120 -11.27692
 Alpha  occ. eigenvalues --  -11.27688 -11.27403 -11.26698 -11.26681 -11.22563
 Alpha  occ. eigenvalues --  -11.22441 -11.22376 -11.22245 -11.21881 -11.21820
 Alpha  occ. eigenvalues --   -1.59792  -1.39346  -1.19292  -1.09344  -1.08684
 Alpha  occ. eigenvalues --   -1.04693  -1.04383  -0.96821  -0.95526  -0.87834
 Alpha  occ. eigenvalues --   -0.86088  -0.82363  -0.80455  -0.79187  -0.77408
 Alpha  occ. eigenvalues --   -0.71988  -0.71116  -0.70417  -0.65972  -0.64942
 Alpha  occ. eigenvalues --   -0.64691  -0.62044  -0.61775  -0.60189  -0.58445
 Alpha  occ. eigenvalues --   -0.56136  -0.55203  -0.53493  -0.53231  -0.53020
 Alpha  occ. eigenvalues --   -0.52783  -0.50758  -0.48777  -0.48744  -0.48732
 Alpha  occ. eigenvalues --   -0.47493  -0.46697  -0.46621  -0.44755  -0.44652
 Alpha  occ. eigenvalues --   -0.37243  -0.36299
 Alpha virt. eigenvalues --    0.05111   0.11314   0.16546   0.19170   0.22675
 Alpha virt. eigenvalues --    0.23070   0.24961   0.25722   0.26664   0.27760
 Alpha virt. eigenvalues --    0.29862   0.30268   0.30984   0.31148   0.31514

 Mulliken charges:
               1
     1  C   -0.169500
     2  C   -0.221075
     3  C   -0.171212
     4  C    0.158344
     5  C   -0.171033
     6  C   -0.219925
     7  H    0.228742
     8  H    0.224591
     9  H    0.275283
    10  H    0.275396
    11  H    0.223320
    12  N    0.488055
    13  O   -0.460624
    14  O   -0.460713
    15  C   -0.298420
    16  C   -0.300439
    17  C   -0.475906
    18  H    0.151281
    19  H    0.153755
    20  H    0.144161
    21  H    0.152620
    22  H    0.158309
    23  H    0.156897
    24  H    0.161488
    25  C   -0.300622
    26  C   -0.300411
    27  C   -0.474899
    28  H    0.139088
    29  H    0.154351
    30  H    0.152919
    31  H    0.155999
    32  H    0.159710
    33  H    0.146673
    34  H    0.163798
 Sum of Mulliken charges =  -0.00000

 Dipole moment (field-independent basis, Debye):
    X=             -4.9580    Y=              0.5696    Z=              1.9728  Tot=              5.3664
 Quadrupole moment (field-independent basis, Debye-Ang):
   XX=           -124.5313   YY=            -91.0883   ZZ=            -93.7372
   XY=              3.2848   XZ=              6.8759   YZ=              1.1250

 Normal termination of Gaussian 16 at Thu May  6 03:12:08 2021.
