 Gaussian 16, Revision A.03,
 Gaussian 16:  EM64L-G16RevA.03 25-Dec-2016

 -------------
 #p 6-31g* mp2
 -------------

 ------------------------------------------------------
 Input file generated by CHIRIPA (05-May-2021 14:57:23)
 ------------------------------------------------------
 Symbolic Z-matrix:
 Charge =  0 Multiplicity = 1

                         Standard orientation:
 ---------------------------------------------------------------------
 Center     Atomic      Atomic             Coordinates (Angstroms)
 Number     Number       Type             X           Y           Z
 ---------------------------------------------------------------------
      1          6           0       -2.852632    2.372864   -0.446530
      2          6           0       -4.230948    2.158721   -0.342086
      3          6           0       -4.735778    0.871663   -0.134293
      4          6           0       -3.829634   -0.183034   -0.035261
      5          6           0       -2.451055   -0.001811   -0.135101
      6          6           0       -1.968643    1.293817   -0.342887
      7          1           0       -2.469175    3.376010   -0.607946
      8          1           0       -4.919815    2.994838   -0.422186
      9          1           0       -5.798122    0.677528   -0.049713
     10          1           0       -1.789116   -0.855160   -0.051131
     11          1           0       -0.897732    1.457151   -0.423608
     12          7           0       -4.352209   -1.550121    0.184716
     13          8           0       -3.532993   -2.462539    0.268482
     14          8           0       -5.571123   -1.683339    0.269203
     15          6           0        3.249536    2.397169    0.485051
     16          6           0        2.244869    1.439943    0.660786
     17          6           0        2.507258    0.085502    0.434531
     18          6           0        3.791263   -0.278115    0.031538
     19          6           0        4.813312    0.651918   -0.152157
     20          6           0        4.528297    2.000801    0.079854
     21          1           0        3.036918    3.447173    0.663046
     22          1           0        1.250847    1.744874    0.975400
     23          1           0        1.748074   -0.676441    0.562986
     24          1           0        5.794512    0.317449   -0.466475
     25          1           0        5.310483    2.742005   -0.057420
     26          7           0        4.081019   -1.709059   -0.211035
     27          8           0        5.220411   -2.003658   -0.565486
     28          8           0        3.163252   -2.508938   -0.042121
 ---------------------------------------------------------------------

 SCF Done:  E(RHF) =  -868.336477895     A.U. after   16 cycles
 E2 =    -0.2599981540D+01 EUMP2 =    -0.87093645943563D+03

 The electronic state is 1-A.
 Alpha  occ. eigenvalues --  -20.61154 -20.61147 -20.61002 -20.60990 -15.86216
 Alpha  occ. eigenvalues --  -15.86060 -11.31774 -11.31597 -11.28446 -11.28350
 Alpha  occ. eigenvalues --  -11.28236 -11.28180 -11.28178 -11.28015 -11.27524
 Alpha  occ. eigenvalues --  -11.27379 -11.27330 -11.27216  -1.60226  -1.60072
 Alpha  occ. eigenvalues --   -1.39774  -1.39620  -1.19983  -1.19802  -1.09338
 Alpha  occ. eigenvalues --   -1.09169  -1.05433  -1.05239  -0.96136  -0.95970
 Alpha  occ. eigenvalues --   -0.86824  -0.86625  -0.82987  -0.82797  -0.78011
 Alpha  occ. eigenvalues --   -0.77798  -0.72427  -0.72273  -0.71555  -0.71400
 Alpha  occ. eigenvalues --   -0.71087  -0.70917  -0.65643  -0.65587  -0.65460
 Alpha  occ. eigenvalues --   -0.65150  -0.62877  -0.62476  -0.55921  -0.55742
 Alpha  occ. eigenvalues --   -0.53749  -0.53636  -0.53537  -0.53217  -0.49204
 Alpha  occ. eigenvalues --   -0.49173  -0.49048  -0.49018  -0.45137  -0.44988
 Alpha  occ. eigenvalues --   -0.37962  -0.37795  -0.37035  -0.36847
 Alpha virt. eigenvalues --    0.04553   0.04734   0.10558   0.10752   0.15846
 Alpha virt. eigenvalues --    0.16131   0.18781   0.21983   0.24905   0.26340
 Alpha virt. eigenvalues --    0.27974   0.29028   0.29823   0.31356   0.31999

 Mulliken charges:
               1
     1  C   -0.171000
     2  C   -0.218290
     3  C   -0.169705
     4  C    0.159154
     5  C   -0.171433
     6  C   -0.224704
     7  H    0.224222
     8  H    0.224746
     9  H    0.277534
    10  H    0.277245
    11  H    0.219638
    12  N    0.487822
    13  O   -0.457219
    14  O   -0.459384
    15  C   -0.170466
    16  C   -0.224367
    17  C   -0.171527
    18  C    0.159417
    19  C   -0.169162
    20  C   -0.218293
    21  H    0.225689
    22  H    0.219385
    23  H    0.275080
    24  H    0.278229
    25  H    0.225637
    26  N    0.487880
    27  O   -0.458478
    28  O   -0.457651
 Sum of Mulliken charges =  -0.00000

 Dipole moment (field-independent basis, Debye):
    X=              0.8839    Y=              9.7360    Z=              0.0550  Tot=              9.7762
 Quadrupole moment (field-independent basis, Debye-Ang):
   XX=           -116.0310   YY=           -109.4629   ZZ=           -106.1636
   XY=              0.0321   XZ=              4.8387   YZ=             -0.4592

 Normal termination of Gaussian 16 at Thu May  6 14:35:08 2021.
