 Gaussian 16, Revision A.03,
 Gaussian 16:  EM64L-G16RevA.03 25-Dec-2016

 -------------
 #p 6-31g* mp2
 -------------

 ------------------------------------------------------
 Input file generated by CHIRIPA (05-May-2021 14:57:25)
 ------------------------------------------------------
 Symbolic Z-matrix:
 Charge =  0 Multiplicity = 1

                         Standard orientation:
 ---------------------------------------------------------------------
 Center     Atomic      Atomic             Coordinates (Angstroms)
 Number     Number       Type             X           Y           Z
 ---------------------------------------------------------------------
      1          6           0       -6.103714    0.678333   -0.123996
      2          6           0       -5.707258   -0.602777   -0.521618
      3          6           0       -4.354096   -0.953763   -0.539249
      4          6           0       -3.419921    0.005428   -0.151230
      5          6           0       -3.783510    1.290006    0.249958
      6          6           0       -5.142270    1.618977    0.259846
      7          1           0       -7.157057    0.942436   -0.113307
      8          1           0       -6.451733   -1.335328   -0.820231
      9          1           0       -4.019458   -1.938339   -0.842638
     10          1           0       -3.018249    1.998806    0.542186
     11          1           0       -5.447258    2.614659    0.569109
     12          7           0       -1.984426   -0.354492   -0.165797
     13          8           0       -1.180945    0.508661    0.180646
     14          8           0       -1.689947   -1.492935   -0.523381
     15          6           0        5.451584    1.386904   -0.869176
     16          6           0        5.405117    0.020502   -1.164652
     17          6           0        4.414967   -0.793386   -0.606317
     18          6           0        3.482966   -0.205087    0.247246
     19          6           0        3.502903    1.153029    0.560956
     20          6           0        4.502002    1.947817   -0.008831
     21          1           0        6.224232    2.011733   -1.307352
     22          1           0        6.141271   -0.417835   -1.832472
     23          1           0        4.355736   -1.854089   -0.818017
     24          1           0        2.755335    1.561286    1.230200
     25          1           0        4.535651    3.008682    0.222426
     26          7           0        2.430002   -1.056604    0.844392
     27          8           0        1.620502   -0.514084    1.593405
     28          8           0        2.434126   -2.250420    0.552117
 ---------------------------------------------------------------------

 SCF Done:  E(RHF) =  -868.335618638     A.U. after   16 cycles
 E2 =    -0.2600610324D+01 EUMP2 =    -0.87093622896148D+03

 The electronic state is 1-A.
 Alpha  occ. eigenvalues --  -20.59872 -20.59863 -20.59280 -20.59161 -15.84935
 Alpha  occ. eigenvalues --  -15.84281 -11.30597 -11.30055 -11.27216 -11.27189
 Alpha  occ. eigenvalues --  -11.27008 -11.26697 -11.26661 -11.26542 -11.26298
 Alpha  occ. eigenvalues --  -11.26277 -11.25819 -11.25804  -1.58929  -1.58266
 Alpha  occ. eigenvalues --   -1.38482  -1.37816  -1.18798  -1.18275  -1.08138
 Alpha  occ. eigenvalues --   -1.07600  -1.04249  -1.03748  -0.94923  -0.94366
 Alpha  occ. eigenvalues --   -0.85633  -0.85127  -0.81759  -0.81207  -0.76756
 Alpha  occ. eigenvalues --   -0.76171  -0.71167  -0.70521  -0.70252  -0.69912
 Alpha  occ. eigenvalues --   -0.69567  -0.69401  -0.64448  -0.64258  -0.63929
 Alpha  occ. eigenvalues --   -0.63773  -0.61596  -0.61093  -0.54745  -0.54262
 Alpha  occ. eigenvalues --   -0.52559  -0.52349  -0.52048  -0.51857  -0.47944
 Alpha  occ. eigenvalues --   -0.47884  -0.47282  -0.47239  -0.43840  -0.43053
 Alpha  occ. eigenvalues --   -0.36797  -0.36283  -0.35866  -0.35369
 Alpha virt. eigenvalues --    0.05784   0.06413   0.11784   0.12283   0.17223
 Alpha virt. eigenvalues --    0.17809   0.21870   0.22304   0.27754   0.28179
 Alpha virt. eigenvalues --    0.28787   0.29248   0.31393   0.31808   0.33035

 Mulliken charges:
               1
     1  C   -0.171833
     2  C   -0.218525
     3  C   -0.171149
     4  C    0.159810
     5  C   -0.171161
     6  C   -0.218507
     7  H    0.223392
     8  H    0.221897
     9  H    0.276266
    10  H    0.273893
    11  H    0.221003
    12  N    0.488207
    13  O   -0.457146
    14  O   -0.455951
    15  C   -0.172392
    16  C   -0.218885
    17  C   -0.171346
    18  C    0.161585
    19  C   -0.168535
    20  C   -0.219131
    21  H    0.221159
    22  H    0.219590
    23  H    0.274326
    24  H    0.277094
    25  H    0.219290
    26  N    0.490344
    27  O   -0.449529
    28  O   -0.463765
 Sum of Mulliken charges =  -0.00000

 Dipole moment (field-independent basis, Debye):
    X=             -1.4989    Y=              4.1462    Z=             -1.9345  Tot=              4.8146
 Quadrupole moment (field-independent basis, Debye-Ang):
   XX=            -47.4437   YY=            -99.3137   ZZ=           -105.7628
   XY=              4.9276   XZ=             -6.3709   YZ=              4.9964

 Normal termination of Gaussian 16 at Thu May  6 00:22:04 2021.
