 Gaussian 16, Revision A.03,
 Gaussian 16:  EM64L-G16RevA.03 25-Dec-2016

 -------------
 #p 6-31g* mp2
 -------------

 ------------------------------------------------------
 Input file generated by CHIRIPA (05-May-2021 14:55:24)
 ------------------------------------------------------
 Symbolic Z-matrix:
 Charge =  0 Multiplicity = 1

                         Standard orientation:
 ---------------------------------------------------------------------
 Center     Atomic      Atomic             Coordinates (Angstroms)
 Number     Number       Type             X           Y           Z
 ---------------------------------------------------------------------
      1          6           0       -0.613459   -2.397348   -0.230939
      2          6           0       -1.788230   -2.391648   -0.990151
      3          6           0       -2.753127   -1.398417   -0.797765
      4          6           0       -2.509604   -0.421797    0.166705
      5          6           0       -1.349189   -0.400468    0.938891
      6          6           0       -0.398068   -1.403491    0.729465
      7          1           0        0.130746   -3.172717   -0.387008
      8          1           0       -1.958180   -3.162234   -1.736716
      9          1           0       -3.671452   -1.370173   -1.371610
     10          1           0       -1.207961    0.380929    1.675703
     11          1           0        0.513346   -1.405419    1.320537
     12          7           0       -3.523806    0.634876    0.379395
     13          8           0       -3.285465    1.484102    1.235343
     14          8           0       -4.537874    0.593863   -0.313874
     15          6           0        3.243745    0.041906   -0.227659
     16          6           0        4.582150   -0.202205    0.470242
     17          6           0        5.059915   -1.649052    0.343096
     18          1           0        2.488061   -0.633822    0.195752
     19          1           0        3.338692   -0.221832   -1.290119
     20          1           0        4.485096    0.063228    1.530781
     21          1           0        5.334692    0.474317    0.045254
     22          1           0        5.184780   -1.922413   -0.709655
     23          1           0        4.330358   -2.335839    0.784313
     24          1           0        6.018364   -1.801287    0.849120
     25          6           0        2.752931    1.483724   -0.109368
     26          6           0        1.414526    1.727836   -0.807269
     27          6           0        0.936762    3.174684   -0.680122
     28          1           0        2.657985    1.747463    0.953092
     29          1           0        3.508616    2.159453   -0.532779
     30          1           0        0.661986    1.051314   -0.382280
     31          1           0        1.511581    1.462404   -1.867808
     32          1           0        1.666319    3.861471   -1.121340
     33          1           0        0.811897    3.448044    0.372628
     34          1           0       -0.021687    3.326919   -1.186146
 ---------------------------------------------------------------------

 SCF Done:  E(RHF) =  -669.533811184     A.U. after   15 cycles
 E2 =    -0.2094407129D+01 EUMP2 =    -0.67162821831302D+03

 The electronic state is 1-A.
 Alpha  occ. eigenvalues --  -20.60823 -20.60818 -15.85878 -11.31274 -11.27838
 Alpha  occ. eigenvalues --  -11.27832 -11.27572 -11.26850 -11.26839 -11.22201
 Alpha  occ. eigenvalues --  -11.22015 -11.21769 -11.21754 -11.21636 -11.21029
 Alpha  occ. eigenvalues --   -1.59898  -1.39451  -1.19458  -1.08911  -1.08818
 Alpha  occ. eigenvalues --   -1.04877  -1.03897  -0.96368  -0.95666  -0.87376
 Alpha  occ. eigenvalues --   -0.86259  -0.82508  -0.79987  -0.78710  -0.77537
 Alpha  occ. eigenvalues --   -0.72096  -0.71223  -0.70545  -0.65647  -0.65104
 Alpha  occ. eigenvalues --   -0.64821  -0.62204  -0.61323  -0.59749  -0.57963
 Alpha  occ. eigenvalues --   -0.55698  -0.55336  -0.53296  -0.53009  -0.52937
 Alpha  occ. eigenvalues --   -0.52751  -0.50319  -0.48861  -0.48849  -0.48283
 Alpha  occ. eigenvalues --   -0.47045  -0.46211  -0.46145  -0.44846  -0.44167
 Alpha  occ. eigenvalues --   -0.37413  -0.36322
 Alpha virt. eigenvalues --    0.04973   0.11027   0.16392   0.19832   0.23072
 Alpha virt. eigenvalues --    0.23685   0.25607   0.26769   0.27460   0.28274
 Alpha virt. eigenvalues --    0.29399   0.30812   0.31266   0.31588   0.31988

 Mulliken charges:
               1
     1  C   -0.170596
     2  C   -0.218177
     3  C   -0.170885
     4  C    0.160700
     5  C   -0.175361
     6  C   -0.215464
     7  H    0.226646
     8  H    0.223968
     9  H    0.275986
    10  H    0.276480
    11  H    0.225727
    12  N    0.488089
    13  O   -0.460164
    14  O   -0.460156
    15  C   -0.299847
    16  C   -0.299922
    17  C   -0.474733
    18  H    0.139902
    19  H    0.151264
    20  H    0.151608
    21  H    0.155464
    22  H    0.156175
    23  H    0.148337
    24  H    0.163220
    25  C   -0.298334
    26  C   -0.309126
    27  C   -0.475621
    28  H    0.146974
    29  H    0.152109
    30  H    0.159116
    31  H    0.151088
    32  H    0.154540
    33  H    0.155868
    34  H    0.165124
 Sum of Mulliken charges =  -0.00000

 Dipole moment (field-independent basis, Debye):
    X=              3.5130    Y=             -3.6961    Z=             -0.8035  Tot=              5.1621
 Quadrupole moment (field-independent basis, Debye-Ang):
   XX=           -111.3472   YY=            -92.1626   ZZ=            -92.1528
   XY=              9.9249   XZ=              4.3499   YZ=              1.2304

 Normal termination of Gaussian 16 at Thu May  6 20:52:52 2021.
