 Gaussian 16, Revision A.03,
 Gaussian 16:  EM64L-G16RevA.03 25-Dec-2016

 -------------
 #p 6-31g* mp2
 -------------

 ------------------------------------------------------
 Input file generated by CHIRIPA (05-May-2021 14:51:07)
 ------------------------------------------------------
 Symbolic Z-matrix:
 Charge =  0 Multiplicity = 1

                         Standard orientation:
 ---------------------------------------------------------------------
 Center     Atomic      Atomic             Coordinates (Angstroms)
 Number     Number       Type             X           Y           Z
 ---------------------------------------------------------------------
      1          6           0       -3.205336   -0.376913    0.130778
      2          6           0       -3.938313   -1.526604   -0.561277
      3          6           0       -3.387536   -2.898629   -0.171426
      4          1           0       -2.136654   -0.428947   -0.118533
      5          1           0       -3.279020   -0.506811    1.219397
      6          1           0       -3.864448   -1.393827   -1.648260
      7          1           0       -5.005405   -1.471715   -0.310444
      8          1           0       -3.475884   -3.056602    0.908315
      9          1           0       -2.328444   -2.978271   -0.437102
     10          1           0       -3.925920   -3.705971   -0.677591
     11          6           0       -3.744539    1.001081   -0.248855
     12          6           0       -3.011562    2.150771    0.443200
     13          6           0       -3.562339    3.522797    0.053349
     14          1           0       -3.670855    1.130979   -1.337474
     15          1           0       -4.813221    1.053114    0.000456
     16          1           0       -1.944470    2.095882    0.192367
     17          1           0       -3.085427    2.017994    1.530182
     18          1           0       -4.621431    3.602439    0.319025
     19          1           0       -3.473991    3.680769   -1.026392
     20          1           0       -3.023955    4.330138    0.559513
     21          6           0        2.989253   -0.708640    0.495255
     22          6           0        1.686960   -1.068888   -0.220453
     23          6           0        0.725582   -1.862111    0.665179
     24          1           0        3.479415   -1.630474    0.837175
     25          1           0        2.754885   -0.126253    1.397082
     26          1           0        1.923797   -1.649242   -1.121404
     27          1           0        1.199937   -0.146101   -0.560875
     28          1           0        0.460345   -1.286505    1.557888
     29          1           0        1.188319   -2.798186    0.994174
     30          1           0       -0.198763   -2.109054    0.133704
     31          6           0        3.960622    0.084472   -0.377179
     32          6           0        5.262915    0.444721    0.338530
     33          6           0        6.224294    1.237944   -0.547101
     34          1           0        4.194990   -0.497914   -1.279006
     35          1           0        3.470460    1.006306   -0.719097
     36          1           0        5.749938   -0.478067    0.678953
     37          1           0        5.026078    1.025074    1.239482
     38          1           0        5.761557    2.174020   -0.876096
     39          1           0        6.489530    0.662338   -1.439810
     40          1           0        7.148638    1.484886   -0.015626
 ---------------------------------------------------------------------

 SCF Done:  E(RHF) =  -470.732879686     A.U. after   11 cycles
 E2 =    -0.1583142417D+01 EUMP2 =    -0.47231602210366D+03

 The electronic state is 1-A.
 Alpha  occ. eigenvalues --  -11.21628 -11.21611 -11.21609 -11.21591 -11.21417
 Alpha  occ. eigenvalues --  -11.21384 -11.21358 -11.21316 -11.21080 -11.21078
 Alpha  occ. eigenvalues --  -11.21057 -11.21031  -1.08449  -1.08416  -1.03561
 Alpha  occ. eigenvalues --   -1.03510  -0.95994  -0.95970  -0.87016  -0.86983
 Alpha  occ. eigenvalues --   -0.79656  -0.79542  -0.78258  -0.78229  -0.65106
 Alpha  occ. eigenvalues --   -0.65034  -0.60973  -0.60930  -0.59501  -0.59212
 Alpha  occ. eigenvalues --   -0.57656  -0.57532  -0.55324  -0.55217  -0.52759
 Alpha  occ. eigenvalues --   -0.52656  -0.52437  -0.52352  -0.49963  -0.49881
 Alpha  occ. eigenvalues --   -0.48022  -0.47809  -0.46641  -0.46605  -0.45799
 Alpha  occ. eigenvalues --   -0.45756  -0.45731  -0.45675  -0.43786  -0.43715
 Alpha virt. eigenvalues --    0.20991   0.23151   0.23471   0.24509   0.26284
 Alpha virt. eigenvalues --    0.26582   0.27048   0.27349   0.27713   0.29372
 Alpha virt. eigenvalues --    0.30236   0.31462   0.31772   0.31888   0.32000

 Mulliken charges:
               1
     1  C   -0.302963
     2  C   -0.299906
     3  C   -0.480058
     4  H    0.155489
     5  H    0.149498
     6  H    0.151561
     7  H    0.151950
     8  H    0.155767
     9  H    0.158996
    10  H    0.160367
    11  C   -0.298088
    12  C   -0.299495
    13  C   -0.475687
    14  H    0.149355
    15  H    0.149633
    16  H    0.151330
    17  H    0.151917
    18  H    0.155295
    19  H    0.155198
    20  H    0.160103
    21  C   -0.298534
    22  C   -0.300276
    23  C   -0.483403
    24  H    0.149889
    25  H    0.149776
    26  H    0.151770
    27  H    0.151328
    28  H    0.156121
    29  H    0.155187
    30  H    0.167833
    31  C   -0.298212
    32  C   -0.299663
    33  C   -0.475711
    34  H    0.149495
    35  H    0.149513
    36  H    0.151992
    37  H    0.151992
    38  H    0.155166
    39  H    0.155175
    40  H    0.160300
 Sum of Mulliken charges =  -0.00000

 Dipole moment (field-independent basis, Debye):
    X=             -0.0005    Y=             -0.0131    Z=              0.0136  Tot=              0.0189
 Quadrupole moment (field-independent basis, Debye-Ang):
   XX=            -84.9281   YY=            -85.4830   ZZ=            -84.3712
   XY=             -0.4892   XZ=             -0.3212   YZ=              0.7334

 Normal termination of Gaussian 16 at Thu May  6 09:59:02 2021.
