 Gaussian 16, Revision A.03,
 Gaussian 16:  EM64L-G16RevA.03 25-Dec-2016

 -------------
 #p 6-31g* mp2
 -------------

 ------------------------------------------------------
 Input file generated by CHIRIPA (05-May-2021 14:51:09)
 ------------------------------------------------------
 Symbolic Z-matrix:
 Charge =  0 Multiplicity = 1

                         Standard orientation:
 ---------------------------------------------------------------------
 Center     Atomic      Atomic             Coordinates (Angstroms)
 Number     Number       Type             X           Y           Z
 ---------------------------------------------------------------------
      1          6           0        2.838838    0.638913    0.115526
      2          6           0        2.496637    2.118271   -0.064431
      3          6           0        1.139310    2.488155    0.534438
      4          1           0        2.052734    0.028117   -0.349138
      5          1           0        2.831257    0.395702    1.187061
      6          1           0        2.506219    2.358942   -1.135226
      7          1           0        3.283744    2.725618    0.400548
      8          1           0        1.121388    2.276078    1.608358
      9          1           0        0.339445    1.907319    0.063858
     10          1           0        0.914764    3.550168    0.394558
     11          6           0        4.192769    0.253744   -0.477975
     12          6           0        4.534971   -1.225613   -0.298017
     13          6           0        5.892298   -1.595497   -0.896887
     14          1           0        4.200351    0.496956   -1.549509
     15          1           0        4.978874    0.864540   -0.013310
     16          1           0        3.747864   -1.832961   -0.762997
     17          1           0        4.525389   -1.466285    0.772778
     18          1           0        6.692163   -1.014661   -0.426306
     19          1           0        5.910220   -1.383421   -1.970806
     20          1           0        6.116844   -2.657511   -0.757006
     21          6           0       -3.131274   -0.577402    0.828054
     22          6           0       -1.629474   -0.767716    0.612736
     23          6           0       -0.873860   -1.029060    1.916017
     24          1           0       -3.292701    0.259443    1.521291
     25          1           0       -3.540747   -1.472027    1.317311
     26          1           0       -1.223208    0.126435    0.122779
     27          1           0       -1.471611   -1.604081   -0.080219
     28          1           0       -1.251613   -1.932374    2.405842
     29          1           0       -1.001799   -0.192025    2.609994
     30          1           0        0.197953   -1.162136    1.738909
     31          6           0       -3.900333   -0.315256   -0.465606
     32          6           0       -5.402134   -0.124941   -0.250288
     33          6           0       -6.157748    0.136403   -1.553568
     34          1           0       -3.490860    0.579370   -0.954862
     35          1           0       -3.738908   -1.152100   -1.158843
     36          1           0       -5.559998    0.711425    0.442667
     37          1           0       -5.808401   -1.019092    0.239669
     38          1           0       -6.029809   -0.700633   -2.247545
     39          1           0       -5.779994    1.039716   -2.043394
     40          1           0       -7.229561    0.269478   -1.376461
 ---------------------------------------------------------------------

 SCF Done:  E(RHF) =  -470.733238909     A.U. after   11 cycles
 E2 =    -0.1583279438D+01 EUMP2 =    -0.47231651834697D+03

 The electronic state is 1-A.
 Alpha  occ. eigenvalues --  -11.21621 -11.21613 -11.21587 -11.21556 -11.21421
 Alpha  occ. eigenvalues --  -11.21383 -11.21361 -11.21321 -11.21079 -11.21075
 Alpha  occ. eigenvalues --  -11.21061 -11.20989  -1.08452  -1.08399  -1.03562
 Alpha  occ. eigenvalues --   -1.03480  -0.96000  -0.95938  -0.87016  -0.86957
 Alpha  occ. eigenvalues --   -0.79634  -0.79545  -0.78286  -0.78198  -0.65113
 Alpha  occ. eigenvalues --   -0.65008  -0.61039  -0.60828  -0.59432  -0.59242
 Alpha  occ. eigenvalues --   -0.57608  -0.57550  -0.55311  -0.55209  -0.52700
 Alpha  occ. eigenvalues --   -0.52633  -0.52466  -0.52316  -0.50032  -0.49815
 Alpha  occ. eigenvalues --   -0.47999  -0.47821  -0.46807  -0.46447  -0.45877
 Alpha  occ. eigenvalues --   -0.45754  -0.45731  -0.45502  -0.43801  -0.43744
 Alpha virt. eigenvalues --    0.20887   0.23050   0.23569   0.25156   0.25569
 Alpha virt. eigenvalues --    0.26377   0.26603   0.27494   0.27968   0.29415
 Alpha virt. eigenvalues --    0.30469   0.30866   0.31562   0.32048   0.32066

 Mulliken charges:
               1
     1  C   -0.300909
     2  C   -0.299432
     3  C   -0.481868
     4  H    0.151741
     5  H    0.150420
     6  H    0.151830
     7  H    0.152032
     8  H    0.156162
     9  H    0.160771
    10  H    0.159992
    11  C   -0.298262
    12  C   -0.299807
    13  C   -0.475696
    14  H    0.149603
    15  H    0.149765
    16  H    0.151953
    17  H    0.151919
    18  H    0.155223
    19  H    0.155221
    20  H    0.160317
    21  C   -0.297802
    22  C   -0.306050
    23  C   -0.477779
    24  H    0.149949
    25  H    0.149464
    26  H    0.157311
    27  H    0.151264
    28  H    0.154418
    29  H    0.155224
    30  H    0.163554
    31  C   -0.298306
    32  C   -0.299631
    33  C   -0.475710
    34  H    0.149204
    35  H    0.149449
    36  H    0.152062
    37  H    0.151924
    38  H    0.155082
    39  H    0.155166
    40  H    0.160233
 Sum of Mulliken charges =  -0.00000

 Dipole moment (field-independent basis, Debye):
    X=              0.0239    Y=              0.0105    Z=              0.0029  Tot=              0.0263
 Quadrupole moment (field-independent basis, Debye-Ang):
   XX=            -85.9636   YY=            -83.9700   ZZ=            -84.8536
   XY=              0.7614   XZ=              0.2060   YZ=              0.3400

 Normal termination of Gaussian 16 at Thu May  6 03:44:57 2021.
