 Gaussian 16, Revision A.03,
 Gaussian 16:  EM64L-G16RevA.03 25-Dec-2016

 -------------
 #p 6-31g* mp2
 -------------

 ------------------------------------------------------
 Input file generated by CHIRIPA (05-May-2021 14:53:11)
 ------------------------------------------------------
 Symbolic Z-matrix:
 Charge =  0 Multiplicity = 1

                         Standard orientation:
 ---------------------------------------------------------------------
 Center     Atomic      Atomic             Coordinates (Angstroms)
 Number     Number       Type             X           Y           Z
 ---------------------------------------------------------------------
      1          6           0        3.505352   -0.357108    0.293725
      2          6           0        2.197599    0.251435   -0.213663
      3          6           0        0.962796   -0.380553    0.429490
      4          1           0        3.500143   -1.437905    0.096758
      5          1           0        3.557799   -0.238492    1.384860
      6          1           0        2.148274    0.132938   -1.303682
      7          1           0        2.206004    1.330940   -0.015637
      8          1           0        0.984948   -0.249893    1.516245
      9          1           0        0.926889   -1.454701    0.220882
     10          1           0        0.039049    0.069333    0.052456
     11          6           0        4.748721    0.264318   -0.339988
     12          6           0        6.056474   -0.344225    0.167400
     13          6           0        7.291278    0.287763   -0.475752
     14          1           0        4.696274    0.145702   -1.431122
     15          1           0        4.753930    1.345115   -0.143020
     16          1           0        6.048069   -1.423730   -0.030626
     17          1           0        6.105800   -0.225728    1.257419
     18          1           0        7.327184    1.361912   -0.267145
     19          1           0        7.269125    0.157103   -1.562508
     20          1           0        8.215025   -0.162123   -0.098719
     21          6           0       -3.291692   -2.483329   -0.096452
     22          6           0       -3.889352   -1.720510   -1.105130
     23          6           0       -3.858090   -0.323818   -1.051983
     24          6           0       -3.217728    0.279830    0.029143
     25          6           0       -2.613130   -0.452665    1.049537
     26          6           0       -2.656607   -1.848092    0.975770
     27          1           0       -3.320721   -3.567821   -0.145747
     28          1           0       -4.383271   -2.211137   -1.939020
     29          1           0       -4.312721    0.291015   -1.819256
     30          1           0       -2.128186    0.064927    1.868283
     31          1           0       -2.191611   -2.437963    1.760549
     32          7           0       -3.178166    1.757774    0.096321
     33          8           0       -2.607741    2.265518    1.059363
     34          8           0       -3.718331    2.380458   -0.815337
 ---------------------------------------------------------------------

 SCF Done:  E(RHF) =  -669.535004451     A.U. after   15 cycles
 E2 =    -0.2092153626D+01 EUMP2 =    -0.67162715807641D+03

 The electronic state is 1-A.
 Alpha  occ. eigenvalues --  -20.60779 -20.60771 -15.85828 -11.31165 -11.27759
 Alpha  occ. eigenvalues --  -11.27730 -11.27496 -11.26751 -11.26729 -11.21600
 Alpha  occ. eigenvalues --  -11.21554 -11.21402 -11.21333 -11.21143 -11.21053
 Alpha  occ. eigenvalues --   -1.59853  -1.39406  -1.19359  -1.08752  -1.08423
 Alpha  occ. eigenvalues --   -1.04757  -1.03530  -0.96006  -0.95584  -0.87032
 Alpha  occ. eigenvalues --   -0.86149  -0.82416  -0.79605  -0.78236  -0.77462
 Alpha  occ. eigenvalues --   -0.72045  -0.71183  -0.70466  -0.65053  -0.65005
 Alpha  occ. eigenvalues --   -0.64750  -0.62104  -0.60926  -0.59382  -0.57611
 Alpha  occ. eigenvalues --   -0.55313  -0.55241  -0.53396  -0.52846  -0.52449
 Alpha  occ. eigenvalues --   -0.52348  -0.49945  -0.48804  -0.48801  -0.47921
 Alpha  occ. eigenvalues --   -0.46624  -0.45782  -0.45700  -0.44817  -0.43791
 Alpha  occ. eigenvalues --   -0.37329  -0.36277
 Alpha virt. eigenvalues --    0.05056   0.11261   0.16510   0.21252   0.22870
 Alpha virt. eigenvalues --    0.24217   0.26440   0.26790   0.27595   0.27988
 Alpha virt. eigenvalues --    0.28653   0.30688   0.31358   0.31800   0.31964

 Mulliken charges:
               1
     1  C   -0.298512
     2  C   -0.300237
     3  C   -0.477513
     4  H    0.147168
     5  H    0.149167
     6  H    0.151987
     7  H    0.157436
     8  H    0.150749
     9  H    0.150137
    10  H    0.165356
    11  C   -0.298449
    12  C   -0.299537
    13  C   -0.475736
    14  H    0.149488
    15  H    0.151528
    16  H    0.150778
    17  H    0.151869
    18  H    0.156069
    19  H    0.155123
    20  H    0.159918
    21  C   -0.171015
    22  C   -0.218769
    23  C   -0.171185
    24  C    0.157638
    25  C   -0.169466
    26  C   -0.216178
    27  H    0.225531
    28  H    0.223259
    29  H    0.275558
    30  H    0.276892
    31  H    0.223930
    32  N    0.488070
    33  O   -0.460543
    34  O   -0.460514
 Sum of Mulliken charges =  -0.00000

 Dipole moment (field-independent basis, Debye):
    X=             -0.1648    Y=             -5.1736    Z=             -0.2406  Tot=              5.1818
 Quadrupole moment (field-independent basis, Debye-Ang):
   XX=            -94.2514   YY=            -97.9570   ZZ=            -90.9049
   XY=             16.6711   XZ=              3.6354   YZ=              0.1950

 Normal termination of Gaussian 16 at Thu May  6 04:02:49 2021.
