 Gaussian 16, Revision A.03,
 Gaussian 16:  EM64L-G16RevA.03 25-Dec-2016

 -------------
 #p 6-31g* mp2
 -------------

 ------------------------------------------------------
 Input file generated by CHIRIPA (05-May-2021 14:55:23)
 ------------------------------------------------------
 Symbolic Z-matrix:
 Charge =  0 Multiplicity = 1

                         Standard orientation:
 ---------------------------------------------------------------------
 Center     Atomic      Atomic             Coordinates (Angstroms)
 Number     Number       Type             X           Y           Z
 ---------------------------------------------------------------------
      1          6           0        3.062932    2.657101    0.637976
      2          6           0        2.511257    1.712561    1.509767
      3          6           0        2.446863    0.363924    1.147026
      4          6           0        2.945718   -0.006889   -0.100745
      5          6           0        3.501252    0.910487   -0.991303
      6          6           0        3.555301    2.253761   -0.607581
      7          1           0        3.108937    3.702671    0.927911
      8          1           0        2.128110    2.022929    2.477710
      9          1           0        2.024970   -0.388214    1.802551
     10          1           0        3.875108    0.570841   -1.949578
     11          1           0        3.984283    2.985112   -1.286657
     12          7           0        2.883023   -1.431791   -0.495868
     13          8           0        3.329340   -1.732934   -1.600744
     14          8           0        2.388753   -2.220506    0.306791
     15          6           0       -4.044701    0.350247   -0.275552
     16          6           0       -5.556445    0.529055   -0.131882
     17          6           0       -6.063438    1.818041   -0.779392
     18          1           0       -3.535382    1.213327    0.174595
     19          1           0       -3.781844    0.353718   -1.342458
     20          1           0       -5.816538    0.523861    0.934392
     21          1           0       -6.062218   -0.334643   -0.582253
     22          1           0       -5.832622    1.828210   -1.849542
     23          1           0       -5.585548    2.691594   -0.324280
     24          1           0       -7.146560    1.925745   -0.664905
     25          6           0       -3.522790   -0.933804    0.366749
     26          6           0       -2.011045   -1.112613    0.223079
     27          6           0       -1.504051   -2.401599    0.870589
     28          1           0       -3.785646   -0.937275    1.433656
     29          1           0       -4.032107   -1.796885   -0.083398
     30          1           0       -1.505272   -0.248914    0.673450
     31          1           0       -1.750951   -1.107419   -0.843194
     32          1           0       -1.981943   -3.275152    0.415477
     33          1           0       -1.734867   -2.411769    1.940740
     34          1           0       -0.420930   -2.509303    0.756103
 ---------------------------------------------------------------------

 SCF Done:  E(RHF) =  -669.536412858     A.U. after   15 cycles
 E2 =    -0.2091199390D+01 EUMP2 =    -0.67162761224759D+03

 The electronic state is 1-A.
 Alpha  occ. eigenvalues --  -20.60956 -20.60941 -15.85974 -11.31273 -11.27836
 Alpha  occ. eigenvalues --  -11.27833 -11.27573 -11.26844 -11.26834 -11.21506
 Alpha  occ. eigenvalues --  -11.21240 -11.21212 -11.21093 -11.21035 -11.20267
 Alpha  occ. eigenvalues --   -1.60004  -1.39562  -1.19441  -1.08850  -1.08196
 Alpha  occ. eigenvalues --   -1.04836  -1.03233  -0.95709  -0.95644  -0.86670
 Alpha  occ. eigenvalues --   -0.86238  -0.82531  -0.79312  -0.78012  -0.77587
 Alpha  occ. eigenvalues --   -0.72201  -0.71312  -0.70552  -0.65100  -0.64850
 Alpha  occ. eigenvalues --   -0.64829  -0.62186  -0.60645  -0.59030  -0.57257
 Alpha  occ. eigenvalues --   -0.55344  -0.54963  -0.53167  -0.52929  -0.52300
 Alpha  occ. eigenvalues --   -0.52080  -0.49622  -0.48960  -0.48950  -0.47617
 Alpha  occ. eigenvalues --   -0.46375  -0.45549  -0.45484  -0.44966  -0.43433
 Alpha  occ. eigenvalues --   -0.37417  -0.36434
 Alpha virt. eigenvalues --    0.04895   0.11197   0.16365   0.21210   0.23046
 Alpha virt. eigenvalues --    0.24448   0.26779   0.27140   0.27649   0.27855
 Alpha virt. eigenvalues --    0.28791   0.30747   0.31638   0.31863   0.32066

 Mulliken charges:
               1
     1  C   -0.170468
     2  C   -0.218743
     3  C   -0.170707
     4  C    0.158623
     5  C   -0.170755
     6  C   -0.218486
     7  H    0.225947
     8  H    0.223801
     9  H    0.276574
    10  H    0.275737
    11  H    0.223778
    12  N    0.489136
    13  O   -0.458413
    14  O   -0.460827
    15  C   -0.297533
    16  C   -0.299371
    17  C   -0.475398
    18  H    0.146461
    19  H    0.149757
    20  H    0.151132
    21  H    0.152718
    22  H    0.155243
    23  H    0.153475
    24  H    0.159933
    25  C   -0.297396
    26  C   -0.298921
    27  C   -0.488299
    28  H    0.147590
    29  H    0.150719
    30  H    0.143984
    31  H    0.153076
    32  H    0.155089
    33  H    0.148525
    34  H    0.184023
 Sum of Mulliken charges =  -0.00000

 Dipole moment (field-independent basis, Debye):
    X=              0.4217    Y=              4.9672    Z=              1.3319  Tot=              5.1600
 Quadrupole moment (field-independent basis, Debye-Ang):
   XX=            -93.7947   YY=            -95.5186   ZZ=            -90.8467
   XY=             16.1356   XZ=              1.9108   YZ=             -0.6747

 Normal termination of Gaussian 16 at Wed May  5 17:33:23 2021.
