 Gaussian 16, Revision A.03,
 Gaussian 16:  EM64L-G16RevA.03 25-Dec-2016

 -------------
 #p 6-31g* mp2
 -------------

 ------------------------------------------------------
 Input file generated by CHIRIPA (05-May-2021 14:51:08)
 ------------------------------------------------------
 Symbolic Z-matrix:
 Charge =  0 Multiplicity = 1

                         Standard orientation:
 ---------------------------------------------------------------------
 Center     Atomic      Atomic             Coordinates (Angstroms)
 Number     Number       Type             X           Y           Z
 ---------------------------------------------------------------------
      1          6           0        4.866377   -0.440600    0.431247
      2          6           0        5.694938   -0.929145   -0.757364
      3          6           0        6.872514   -1.808452   -0.335547
      4          1           0        5.516288    0.119060    1.117789
      5          1           0        4.494181   -1.309403    0.991645
      6          1           0        6.064310   -0.059697   -1.316147
      7          1           0        5.042938   -1.487544   -1.441252
      8          1           0        6.518858   -2.693542    0.203103
      9          1           0        7.546033   -1.257582    0.328919
     10          1           0        7.451215   -2.146601   -1.200775
     11          6           0        3.685529    0.439628    0.025630
     12          6           0        2.856967    0.928173    1.214240
     13          6           0        1.679391    1.807480    0.792423
     14          1           0        4.057725    1.308431   -0.534769
     15          1           0        3.035617   -0.120032   -0.660913
     16          1           0        3.508967    1.486572    1.898129
     17          1           0        2.487595    0.058725    1.773024
     18          1           0        1.005872    1.256610    0.127957
     19          1           0        2.033047    2.692570    0.253773
     20          1           0        1.100690    2.145629    1.657651
     21          6           0       -3.664697    0.142890   -0.663776
     22          6           0       -2.946567    1.441350   -0.294619
     23          6           0       -1.725801    1.712449   -1.174407
     24          1           0       -2.958834   -0.694997   -0.582235
     25          1           0       -3.973863    0.189756   -1.717160
     26          1           0       -2.640067    1.392613    0.758140
     27          1           0       -3.654272    2.276218   -0.376863
     28          1           0       -2.018389    1.787705   -2.226705
     29          1           0       -0.998421    0.899079   -1.085253
     30          1           0       -1.227553    2.645488   -0.893252
     31          6           0       -4.887208   -0.141918    0.206900
     32          6           0       -5.605338   -1.440377   -0.162258
     33          6           0       -6.826105   -1.711477    0.717531
     34          1           0       -4.578043   -0.188784    1.260283
     35          1           0       -5.593070    0.695969    0.125359
     36          1           0       -4.897633   -2.275246   -0.080014
     37          1           0       -5.911838   -1.391641   -1.215016
     38          1           0       -7.553484   -0.898106    0.628377
     39          1           0       -6.533517   -1.786733    1.769828
     40          1           0       -7.324353   -2.644515    0.436375
 ---------------------------------------------------------------------

 SCF Done:  E(RHF) =  -470.732872621     A.U. after   11 cycles
 E2 =    -0.1582489830D+01 EUMP2 =    -0.47231536245112D+03

 The electronic state is 1-A.
 Alpha  occ. eigenvalues --  -11.21601 -11.21590 -11.21578 -11.21560 -11.21399
 Alpha  occ. eigenvalues --  -11.21387 -11.21340 -11.21327 -11.21071 -11.21063
 Alpha  occ. eigenvalues --  -11.21020 -11.20962  -1.08425  -1.08404  -1.03539
 Alpha  occ. eigenvalues --   -1.03479  -0.96021  -0.95897  -0.87071  -0.86883
 Alpha  occ. eigenvalues --   -0.79648  -0.79498  -0.78243  -0.78212  -0.65088
 Alpha  occ. eigenvalues --   -0.65011  -0.61057  -0.60785  -0.59351  -0.59301
 Alpha  occ. eigenvalues --   -0.57579  -0.57562  -0.55500  -0.55031  -0.52771
 Alpha  occ. eigenvalues --   -0.52604  -0.52395  -0.52291  -0.50142  -0.49654
 Alpha  occ. eigenvalues --   -0.47923  -0.47846  -0.46729  -0.46453  -0.45804
 Alpha  occ. eigenvalues --   -0.45743  -0.45706  -0.45635  -0.43792  -0.43725
 Alpha virt. eigenvalues --    0.22089   0.23026   0.23602   0.24828   0.26222
 Alpha virt. eigenvalues --    0.26756   0.27097   0.27389   0.27720   0.29159
 Alpha virt. eigenvalues --    0.29904   0.31361   0.31581   0.32013   0.32243

 Mulliken charges:
               1
     1  C   -0.298223
     2  C   -0.299633
     3  C   -0.475689
     4  H    0.149659
     5  H    0.149331
     6  H    0.151967
     7  H    0.151895
     8  H    0.155109
     9  H    0.155166
    10  H    0.160227
    11  C   -0.298103
    12  C   -0.299909
    13  C   -0.480483
    14  H    0.149652
    15  H    0.149172
    16  H    0.151541
    17  H    0.151200
    18  H    0.162647
    19  H    0.154546
    20  H    0.159180
    21  C   -0.298417
    22  C   -0.300193
    23  C   -0.477729
    24  H    0.149347
    25  H    0.149520
    26  H    0.152405
    27  H    0.151946
    28  H    0.154725
    29  H    0.155784
    30  H    0.163420
    31  C   -0.298279
    32  C   -0.299630
    33  C   -0.475700
    34  H    0.149516
    35  H    0.149693
    36  H    0.151818
    37  H    0.151926
    38  H    0.155204
    39  H    0.155170
    40  H    0.160224
 Sum of Mulliken charges =  -0.00000

 Dipole moment (field-independent basis, Debye):
    X=             -0.0209    Y=              0.0172    Z=             -0.0155  Tot=              0.0311
 Quadrupole moment (field-independent basis, Debye-Ang):
   XX=            -85.8241   YY=            -84.3392   ZZ=            -84.7296
   XY=              0.4343   XZ=              0.7603   YZ=             -0.0384

 Normal termination of Gaussian 16 at Wed May  5 21:17:31 2021.
