 Gaussian 16, Revision A.03,
 Gaussian 16:  EM64L-G16RevA.03 25-Dec-2016

 -------------
 #p 6-31g* mp2
 -------------

 ------------------------------------------------------
 Input file generated by CHIRIPA (05-May-2021 14:51:09)
 ------------------------------------------------------
 Symbolic Z-matrix:
 Charge =  0 Multiplicity = 1

                         Standard orientation:
 ---------------------------------------------------------------------
 Center     Atomic      Atomic             Coordinates (Angstroms)
 Number     Number       Type             X           Y           Z
 ---------------------------------------------------------------------
      1          6           0       -3.018094    0.737346    0.074050
      2          6           0       -3.044768   -0.779124    0.267935
      3          6           0       -4.461895   -1.329305    0.431777
      4          1           0       -3.502851    1.219159    0.934173
      5          1           0       -3.617876    0.997695   -0.809055
      6          1           0       -2.443977   -1.036657    1.149606
      7          1           0       -2.559720   -1.257374   -0.592659
      8          1           0       -5.068141   -1.101205   -0.450854
      9          1           0       -4.951741   -0.879234    1.301310
     10          1           0       -4.457625   -2.415121    0.569049
     11          6           0       -1.608378    1.302263   -0.091167
     12          6           0       -1.581704    2.818734   -0.285052
     13          6           0       -0.164576    3.368914   -0.448894
     14          1           0       -1.008595    1.041915    0.791938
     15          1           0       -1.123621    0.820450   -0.951290
     16          1           0       -2.066751    3.296984    0.575542
     17          1           0       -2.182494    3.076266   -1.166723
     18          1           0        0.325270    2.918843   -1.318428
     19          1           0        0.441670    3.140815    0.433736
     20          1           0       -0.168847    4.454731   -0.586166
     21          6           0        1.611284   -1.311695    0.082696
     22          6           0        1.476575   -2.721134   -0.494642
     23          6           0        0.066563   -3.291538   -0.338766
     24          1           0        1.337265   -1.330322    1.146421
     25          1           0        0.889568   -0.648832   -0.414432
     26          1           0        2.199285   -3.380833    0.002454
     27          1           0        1.751131   -2.699185   -1.557070
     28          1           0       -0.664449   -2.656871   -0.850060
     29          1           0       -0.213747   -3.342390    0.718325
     30          1           0       -0.007291   -4.299739   -0.758215
     31          6           0        3.015187   -0.727915   -0.065578
     32          6           0        3.149896    0.681525    0.511758
     33          6           0        4.559909    1.251929    0.355884
     34          1           0        3.736903   -1.390777    0.431549
     35          1           0        3.289206   -0.709287   -1.129303
     36          1           0        2.875341    0.659576    1.574187
     37          1           0        2.427185    1.341223    0.014663
     38          1           0        4.840219    1.302781   -0.701207
     39          1           0        5.290920    0.617261    0.867178
     40          1           0        4.633762    2.260129    0.775332
 ---------------------------------------------------------------------

 SCF Done:  E(RHF) =  -470.732251295     A.U. after   11 cycles
 E2 =    -0.1585195367D+01 EUMP2 =    -0.47231744666159D+03

 The electronic state is 1-A.
 Alpha  occ. eigenvalues --  -11.21634 -11.21561 -11.21522 -11.21501 -11.21414
 Alpha  occ. eigenvalues --  -11.21353 -11.21307 -11.21227 -11.21115 -11.21047
 Alpha  occ. eigenvalues --  -11.21009 -11.20965  -1.08466  -1.08327  -1.03558
 Alpha  occ. eigenvalues --   -1.03436  -0.96011  -0.95886  -0.87047  -0.86886
 Alpha  occ. eigenvalues --   -0.79712  -0.79432  -0.78502  -0.77921  -0.65134
 Alpha  occ. eigenvalues --   -0.64933  -0.60986  -0.60829  -0.59424  -0.59219
 Alpha  occ. eigenvalues --   -0.57772  -0.57363  -0.55315  -0.55167  -0.52691
 Alpha  occ. eigenvalues --   -0.52596  -0.52569  -0.52184  -0.50005  -0.49788
 Alpha  occ. eigenvalues --   -0.48223  -0.47599  -0.46751  -0.46536  -0.46342
 Alpha  occ. eigenvalues --   -0.45808  -0.45525  -0.44882  -0.43787  -0.43694
 Alpha virt. eigenvalues --    0.21100   0.22409   0.23546   0.24328   0.25148
 Alpha virt. eigenvalues --    0.25714   0.27241   0.27616   0.28060   0.29867
 Alpha virt. eigenvalues --    0.30808   0.31195   0.31777   0.32036   0.32431

 Mulliken charges:
               1
     1  C   -0.297848
     2  C   -0.303318
     3  C   -0.475601
     4  H    0.149570
     5  H    0.149050
     6  H    0.153191
     7  H    0.155565
     8  H    0.154785
     9  H    0.154933
    10  H    0.160830
    11  C   -0.301968
    12  C   -0.299306
    13  C   -0.478984
    14  H    0.153116
    15  H    0.149943
    16  H    0.152168
    17  H    0.151759
    18  H    0.154705
    19  H    0.158911
    20  H    0.160625
    21  C   -0.304754
    22  C   -0.299369
    23  C   -0.479168
    24  H    0.148124
    25  H    0.158171
    26  H    0.151363
    27  H    0.150976
    28  H    0.159842
    29  H    0.154937
    30  H    0.159207
    31  C   -0.297577
    32  C   -0.305803
    33  C   -0.475270
    34  H    0.148990
    35  H    0.148855
    36  H    0.150491
    37  H    0.159103
    38  H    0.154912
    39  H    0.154830
    40  H    0.160013
 Sum of Mulliken charges =  -0.00000

 Dipole moment (field-independent basis, Debye):
    X=             -0.0598    Y=              0.0399    Z=              0.0058  Tot=              0.0721
 Quadrupole moment (field-independent basis, Debye-Ang):
   XX=            -86.8011   YY=            -85.3028   ZZ=            -82.9356
   XY=             -1.0585   XZ=              0.4238   YZ=             -0.1259

 Normal termination of Gaussian 16 at Wed May  5 22:59:06 2021.
