 Gaussian 16, Revision A.03,
 Gaussian 16:  EM64L-G16RevA.03 25-Dec-2016

 -------------
 #p 6-31g* mp2
 -------------

 ------------------------------------------------------
 Input file generated by CHIRIPA (05-May-2021 14:55:19)
 ------------------------------------------------------
 Symbolic Z-matrix:
 Charge =  0 Multiplicity = 1

                         Standard orientation:
 ---------------------------------------------------------------------
 Center     Atomic      Atomic             Coordinates (Angstroms)
 Number     Number       Type             X           Y           Z
 ---------------------------------------------------------------------
      1          6           0        1.475400   -2.269504   -1.661680
      2          6           0        2.003435   -1.029610   -2.036328
      3          6           0        2.246536   -0.042246   -1.076868
      4          6           0        1.948551   -0.329954    0.254192
      5          6           0        1.421771   -1.555544    0.658820
      6          6           0        1.186762   -2.528058   -0.317671
      7          1           0        1.289697   -3.030744   -2.413626
      8          1           0        2.228557   -0.826029   -3.079362
      9          1           0        2.654717    0.926240   -1.339240
     10          1           0        1.207501   -1.729145    1.706373
     11          1           0        0.776620   -3.490075   -0.023814
     12          7           0        2.201627    0.707463    1.278944
     13          8           0        1.930539    0.429222    2.445019
     14          8           0        2.666286    1.779188    0.896666
     15          6           0       -2.368830    1.231853   -0.588122
     16          6           0       -1.184972    2.140893   -0.256296
     17          6           0       -1.054254    3.317995   -1.223323
     18          1           0       -2.257186    0.854826   -1.613954
     19          1           0       -3.293539    1.825193   -0.572089
     20          1           0       -0.262932    1.545726   -0.271591
     21          1           0       -1.299350    2.515647    0.768933
     22          1           0       -1.957731    3.935966   -1.202337
     23          1           0       -0.915424    2.960533   -2.248773
     24          1           0       -0.201631    3.954812   -0.967674
     25          6           0       -2.512682    0.050537    0.369754
     26          6           0       -3.696540   -0.858504    0.037927
     27          6           0       -3.827259   -2.035605    1.004954
     28          1           0       -1.587974   -0.542804    0.353721
     29          1           0       -2.624326    0.427563    1.395586
     30          1           0       -3.582164   -1.233258   -0.987301
     31          1           0       -4.618581   -0.263337    0.053223
     32          1           0       -3.966088   -1.678145    2.030406
     33          1           0       -2.923782   -2.653577    0.983968
     34          1           0       -4.679882   -2.672423    0.749306
 ---------------------------------------------------------------------

 SCF Done:  E(RHF) =  -669.535283421     A.U. after   15 cycles
 E2 =    -0.2094524385D+01 EUMP2 =    -0.67162980780523D+03

 The electronic state is 1-A.
 Alpha  occ. eigenvalues --  -20.60852 -20.60847 -15.85891 -11.31290 -11.27879
 Alpha  occ. eigenvalues --  -11.27866 -11.27624 -11.26915 -11.26892 -11.21667
 Alpha  occ. eigenvalues --  -11.21289 -11.21262 -11.21258 -11.21199 -11.20777
 Alpha  occ. eigenvalues --   -1.59916  -1.39470  -1.19495  -1.08874  -1.08319
 Alpha  occ. eigenvalues --   -1.04898  -1.03432  -0.95889  -0.95697  -0.86914
 Alpha  occ. eigenvalues --   -0.86286  -0.82527  -0.79509  -0.78138  -0.77564
 Alpha  occ. eigenvalues --   -0.72117  -0.71248  -0.70581  -0.65143  -0.64963
 Alpha  occ. eigenvalues --   -0.64885  -0.62237  -0.60850  -0.59258  -0.57481
 Alpha  occ. eigenvalues --   -0.55387  -0.55202  -0.53270  -0.52975  -0.52569
 Alpha  occ. eigenvalues --   -0.52320  -0.49865  -0.48881  -0.48871  -0.47832
 Alpha  occ. eigenvalues --   -0.46579  -0.45654  -0.45575  -0.44822  -0.43667
 Alpha  occ. eigenvalues --   -0.37412  -0.36463
 Alpha virt. eigenvalues --    0.04943   0.11080   0.16409   0.21161   0.22939
 Alpha virt. eigenvalues --    0.24195   0.26351   0.27161   0.27525   0.27878
 Alpha virt. eigenvalues --    0.28450   0.30455   0.31624   0.31991   0.32086

 Mulliken charges:
               1
     1  C   -0.170940
     2  C   -0.217368
     3  C   -0.173004
     4  C    0.157389
     5  C   -0.171468
     6  C   -0.218813
     7  H    0.226314
     8  H    0.224196
     9  H    0.276366
    10  H    0.276932
    11  H    0.224481
    12  N    0.492553
    13  O   -0.459232
    14  O   -0.460010
    15  C   -0.296897
    16  C   -0.302967
    17  C   -0.476778
    18  H    0.145696
    19  H    0.149260
    20  H    0.150234
    21  H    0.158693
    22  H    0.154517
    23  H    0.148949
    24  H    0.167535
    25  C   -0.303046
    26  C   -0.298898
    27  C   -0.474304
    28  H    0.149807
    29  H    0.153073
    30  H    0.148907
    31  H    0.152974
    32  H    0.157853
    33  H    0.148325
    34  H    0.159672
 Sum of Mulliken charges =  -0.00000

 Dipole moment (field-independent basis, Debye):
    X=             -0.7616    Y=             -3.6048    Z=             -3.5314  Tot=              5.1035
 Quadrupole moment (field-independent basis, Debye-Ang):
   XX=            -98.2145   YY=            -91.1676   ZZ=            -94.4002
   XY=             -6.3722   XZ=             -9.1495   YZ=             -1.0943

 Normal termination of Gaussian 16 at Thu May  6 20:36:19 2021.
