 Gaussian 16, Revision A.03,
 Gaussian 16:  EM64L-G16RevA.03 25-Dec-2016

 -------------
 #p 6-31g* mp2
 -------------

 ------------------------------------------------------
 Input file generated by CHIRIPA (05-May-2021 14:55:21)
 ------------------------------------------------------
 Symbolic Z-matrix:
 Charge =  0 Multiplicity = 1

                         Standard orientation:
 ---------------------------------------------------------------------
 Center     Atomic      Atomic             Coordinates (Angstroms)
 Number     Number       Type             X           Y           Z
 ---------------------------------------------------------------------
      1          6           0       -1.619781   -1.174952    1.026836
      2          6           0       -1.642291    0.121480    0.502168
      3          6           0       -2.811328    0.637843   -0.064641
      4          6           0       -3.944697   -0.173396   -0.090275
      5          6           0       -3.953838   -1.468943    0.424276
      6          6           0       -2.773592   -1.964634    0.986288
      7          1           0       -0.707291   -1.568046    1.465284
      8          1           0       -0.747725    0.737019    0.532293
      9          1           0       -2.856611    1.638074   -0.478047
     10          1           0       -4.861375   -2.058706    0.379857
     11          1           0       -2.759029   -2.971819    1.392995
     12          7           0       -5.188237    0.362312   -0.687791
     13          8           0       -6.173406   -0.372514   -0.698226
     14          8           0       -5.154208    1.506883   -1.134374
     15          6           0        4.120499    0.438858    0.348083
     16          6           0        3.649964    1.893698    0.343756
     17          6           0        2.315443    2.085527    1.064900
     18          1           0        3.353111   -0.189450   -0.124452
     19          1           0        4.211156    0.093198    1.387167
     20          1           0        3.561552    2.236941   -0.694986
     21          1           0        4.418646    2.518643    0.816184
     22          1           0        2.393531    1.769617    2.110226
     23          1           0        1.531567    1.486314    0.590471
     24          1           0        1.997855    3.132795    1.049803
     25          6           0        5.453250    0.231060   -0.369081
     26          6           0        5.923786   -1.223780   -0.364754
     27          6           0        7.258307   -1.415609   -1.085898
     28          1           0        5.362594    0.576720   -1.408165
     29          1           0        6.220639    0.859368    0.103454
     30          1           0        5.155104   -1.848725   -0.837182
     31          1           0        6.012199   -1.567023    0.673988
     32          1           0        8.042183   -0.816396   -0.611468
     33          1           0        7.180219   -1.099700   -2.131224
     34          1           0        7.575895   -2.462877   -1.070801
 ---------------------------------------------------------------------

 SCF Done:  E(RHF) =  -669.535577804     A.U. after   15 cycles
 E2 =    -0.2090735297D+01 EUMP2 =    -0.67162631310055D+03

 The electronic state is 1-A.
 Alpha  occ. eigenvalues --  -20.60725 -20.60720 -15.85778 -11.31136 -11.27707
 Alpha  occ. eigenvalues --  -11.27696 -11.27440 -11.26722 -11.26682 -11.22428
 Alpha  occ. eigenvalues --  -11.22185 -11.22158 -11.22140 -11.21972 -11.21509
 Alpha  occ. eigenvalues --   -1.59801  -1.39355  -1.19307  -1.09131  -1.08703
 Alpha  occ. eigenvalues --   -1.04709  -1.04245  -0.96715  -0.95539  -0.87737
 Alpha  occ. eigenvalues --   -0.86108  -0.82372  -0.80318  -0.78926  -0.77421
 Alpha  occ. eigenvalues --   -0.71997  -0.71124  -0.70414  -0.65766  -0.64958
 Alpha  occ. eigenvalues --   -0.64731  -0.62104  -0.61607  -0.60080  -0.58308
 Alpha  occ. eigenvalues --   -0.56029  -0.55204  -0.53407  -0.53210  -0.53040
 Alpha  occ. eigenvalues --   -0.52735  -0.50645  -0.48770  -0.48752  -0.48610
 Alpha  occ. eigenvalues --   -0.47335  -0.46474  -0.46375  -0.44762  -0.44486
 Alpha  occ. eigenvalues --   -0.37289  -0.36312
 Alpha virt. eigenvalues --    0.05113   0.11333   0.16606   0.19903   0.22395
 Alpha virt. eigenvalues --    0.23724   0.25127   0.26222   0.26979   0.28216
 Alpha virt. eigenvalues --    0.28653   0.30027   0.30981   0.31356   0.31917

 Mulliken charges:
               1
     1  C   -0.173631
     2  C   -0.226960
     3  C   -0.173227
     4  C    0.158975
     5  C   -0.171329
     6  C   -0.218583
     7  H    0.225926
     8  H    0.236133
     9  H    0.276147
    10  H    0.275384
    11  H    0.223190
    12  N    0.488002
    13  O   -0.460675
    14  O   -0.460480
    15  C   -0.298731
    16  C   -0.299355
    17  C   -0.481677
    18  H    0.146665
    19  H    0.149307
    20  H    0.154830
    21  H    0.155904
    22  H    0.157400
    23  H    0.146764
    24  H    0.165210
    25  C   -0.298791
    26  C   -0.300061
    27  C   -0.476074
    28  H    0.151271
    29  H    0.151406
    30  H    0.151466
    31  H    0.151792
    32  H    0.156147
    33  H    0.156293
    34  H    0.161361
 Sum of Mulliken charges =  -0.00000

 Dipole moment (field-independent basis, Debye):
    X=              4.6172    Y=             -1.8406    Z=              2.1062  Tot=              5.3984
 Quadrupole moment (field-independent basis, Debye-Ang):
   XX=           -128.6076   YY=            -90.4128   ZZ=            -95.1911
   XY=              9.6304   XZ=             -8.4156   YZ=             -1.1982

 Normal termination of Gaussian 16 at Wed May  5 18:57:46 2021.
