 Gaussian 16, Revision A.03,
 Gaussian 16:  EM64L-G16RevA.03 25-Dec-2016

 -------------
 #p 6-31g* mp2
 -------------

 ------------------------------------------------------
 Input file generated by CHIRIPA (05-May-2021 14:53:13)
 ------------------------------------------------------
 Symbolic Z-matrix:
 Charge =  0 Multiplicity = 1

                         Standard orientation:
 ---------------------------------------------------------------------
 Center     Atomic      Atomic             Coordinates (Angstroms)
 Number     Number       Type             X           Y           Z
 ---------------------------------------------------------------------
      1          6           0       -3.149238   -0.420064   -0.116613
      2          6           0       -3.930260   -1.733174   -0.055532
      3          6           0       -3.020666   -2.962138   -0.046586
      4          1           0       -2.518305   -0.417586   -1.015981
      5          1           0       -2.467580   -0.366615    0.743550
      6          1           0       -4.611239   -1.783500   -0.914805
      7          1           0       -4.559551   -1.732444    0.843695
      8          1           0       -2.350460   -2.939081    0.818800
      9          1           0       -2.402442   -2.990427   -0.949692
     10          1           0       -3.599699   -3.889850   -0.002632
     11          6           0       -4.044740    0.817560   -0.126224
     12          6           0       -3.263718    2.130670   -0.187306
     13          6           0       -4.173312    3.359634   -0.196251
     14          1           0       -4.726398    0.764112   -0.986388
     15          1           0       -4.675673    0.815083    0.773144
     16          1           0       -2.634427    2.129940   -1.086532
     17          1           0       -2.582739    2.180996    0.671968
     18          1           0       -4.791536    3.387923    0.706854
     19          1           0       -4.843518    3.336577   -1.061637
     20          1           0       -3.594279    4.287346   -0.240206
     21          6           0        0.811321   -1.629603    0.538658
     22          6           0        1.559920   -1.798601   -0.630769
     23          6           0        2.669363   -0.987423   -0.887040
     24          6           0        3.003387   -0.012739    0.051954
     25          6           0        2.277423    0.180101    1.226296
     26          6           0        1.171826   -0.642533    1.461830
     27          1           0       -0.049028   -2.264195    0.729680
     28          1           0        1.282273   -2.564363   -1.349494
     29          1           0        3.266449   -1.096670   -1.784241
     30          1           0        2.578712    0.951986    1.924032
     31          1           0        0.592293   -0.509025    2.370875
     32          7           0        4.175869    0.852082   -0.208373
     33          8           0        4.449446    1.703573    0.634690
     34          8           0        4.799083    0.662062   -1.250551
 ---------------------------------------------------------------------

 SCF Done:  E(RHF) =  -669.535450457     A.U. after   15 cycles
 E2 =    -0.2091828882D+01 EUMP2 =    -0.67162727933885D+03

 The electronic state is 1-A.
 Alpha  occ. eigenvalues --  -20.60714 -20.60709 -15.85768 -11.31114 -11.27696
 Alpha  occ. eigenvalues --  -11.27693 -11.27368 -11.26694 -11.26679 -11.22530
 Alpha  occ. eigenvalues --  -11.22346 -11.22201 -11.22064 -11.21971 -11.21422
 Alpha  occ. eigenvalues --   -1.59790  -1.39344  -1.19288  -1.09165  -1.08676
 Alpha  occ. eigenvalues --   -1.04694  -1.04274  -0.96748  -0.95517  -0.87769
 Alpha  occ. eigenvalues --   -0.86089  -0.82360  -0.80353  -0.78934  -0.77410
 Alpha  occ. eigenvalues --   -0.71986  -0.71114  -0.70396  -0.65794  -0.64938
 Alpha  occ. eigenvalues --   -0.64702  -0.62048  -0.61673  -0.60135  -0.58354
 Alpha  occ. eigenvalues --   -0.56087  -0.55177  -0.53425  -0.53149  -0.53009
 Alpha  occ. eigenvalues --   -0.52786  -0.50702  -0.48756  -0.48742  -0.48629
 Alpha  occ. eigenvalues --   -0.47375  -0.46474  -0.46379  -0.44755  -0.44503
 Alpha  occ. eigenvalues --   -0.37233  -0.36303
 Alpha virt. eigenvalues --    0.05121   0.11291   0.16579   0.19734   0.22560
 Alpha virt. eigenvalues --    0.23886   0.25060   0.25994   0.26724   0.27801
 Alpha virt. eigenvalues --    0.29409   0.30029   0.31079   0.31278   0.32161

 Mulliken charges:
               1
     1  C   -0.298695
     2  C   -0.299804
     3  C   -0.479823
     4  H    0.151944
     5  H    0.143661
     6  H    0.156205
     7  H    0.154504
     8  H    0.146914
     9  H    0.153580
    10  H    0.166778
    11  C   -0.299109
    12  C   -0.299639
    13  C   -0.476314
    14  H    0.151482
    15  H    0.150167
    16  H    0.154345
    17  H    0.150835
    18  H    0.155175
    19  H    0.156058
    20  H    0.162873
    21  C   -0.172658
    22  C   -0.222592
    23  C   -0.170646
    24  C    0.158016
    25  C   -0.170578
    26  C   -0.221532
    27  H    0.235921
    28  H    0.223406
    29  H    0.275228
    30  H    0.275232
    31  H    0.222467
    32  N    0.488061
    33  O   -0.460726
    34  O   -0.460738
 Sum of Mulliken charges =  -0.00000

 Dipole moment (field-independent basis, Debye):
    X=             -4.3424    Y=             -2.9991    Z=              0.8465  Tot=              5.3449
 Quadrupole moment (field-independent basis, Debye-Ang):
   XX=           -119.8969   YY=            -94.8936   ZZ=            -90.1100
   XY=             -9.0418   XZ=              1.9479   YZ=              2.3199

 Normal termination of Gaussian 16 at Wed May  5 15:33:00 2021.
