 Gaussian 16, Revision A.03,
 Gaussian 16:  EM64L-G16RevA.03 25-Dec-2016

 -------------
 #p 6-31g* mp2
 -------------

 ------------------------------------------------------
 Input file generated by CHIRIPA (05-May-2021 14:57:22)
 ------------------------------------------------------
 Symbolic Z-matrix:
 Charge =  0 Multiplicity = 1

                         Standard orientation:
 ---------------------------------------------------------------------
 Center     Atomic      Atomic             Coordinates (Angstroms)
 Number     Number       Type             X           Y           Z
 ---------------------------------------------------------------------
      1          6           0        0.948263   -0.793413   -1.004215
      2          6           0        1.302422    0.524828   -0.698713
      3          6           0        2.580884    0.823357   -0.218127
      4          6           0        3.484304   -0.225586   -0.054290
      5          6           0        3.161404   -1.549105   -0.349795
      6          6           0        1.877246   -1.824355   -0.829090
      7          1           0       -0.047090   -1.016275   -1.377044
      8          1           0        0.583010    1.327487   -0.833734
      9          1           0        2.881498    1.834963    0.026212
     10          1           0        3.900137   -2.327999   -0.204826
     11          1           0        1.604972   -2.849055   -1.065526
     12          7           0        4.840769    0.078130    0.453802
     13          8           0        5.618458   -0.863918    0.589384
     14          8           0        5.100594    1.252481    0.706841
     15          6           0       -1.945679    2.382345   -0.307322
     16          6           0       -2.511411    1.672206   -1.371357
     17          6           0       -3.242059    0.503669   -1.136363
     18          6           0       -3.387877    0.071974    0.181084
     19          6           0       -2.836311    0.757473    1.262359
     20          6           0       -2.109645    1.923521    1.003829
     21          1           0       -1.379641    3.289125   -0.499013
     22          1           0       -2.385696    2.026182   -2.390641
     23          1           0       -3.690697   -0.065534   -1.941440
     24          1           0       -2.978730    0.379817    2.267601
     25          1           0       -1.671407    2.472986    1.832129
     26          7           0       -4.159274   -1.163786    0.442321
     27          8           0       -4.273303   -1.523175    1.612138
     28          8           0       -4.635258   -1.749586   -0.527686
 ---------------------------------------------------------------------

 SCF Done:  E(RHF) =  -868.337223481     A.U. after   16 cycles
 E2 =    -0.2601955590D+01 EUMP2 =    -0.87093917907094D+03

 The electronic state is 1-A.
 Alpha  occ. eigenvalues --  -20.61716 -20.61699 -20.60947 -20.60934 -15.86768
 Alpha  occ. eigenvalues --  -15.85995 -11.32344 -11.31345 -11.28935 -11.28834
 Alpha  occ. eigenvalues --  -11.28666 -11.28013 -11.27933 -11.27900 -11.27876
 Alpha  occ. eigenvalues --  -11.27583 -11.26870 -11.26849  -1.60784  -1.60019
 Alpha  occ. eigenvalues --   -1.40330  -1.39573  -1.20533  -1.19502  -1.09905
 Alpha  occ. eigenvalues --   -1.08887  -1.05927  -1.04909  -0.96694  -0.95733
 Alpha  occ. eigenvalues --   -0.87313  -0.86300  -0.83494  -0.82573  -0.78498
 Alpha  occ. eigenvalues --   -0.77640  -0.72974  -0.72213  -0.72119  -0.71625
 Alpha  occ. eigenvalues --   -0.71343  -0.70595  -0.66159  -0.65889  -0.65148
 Alpha  occ. eigenvalues --   -0.64944  -0.63232  -0.62294  -0.56439  -0.55376
 Alpha  occ. eigenvalues --   -0.54366  -0.53982  -0.53225  -0.52893  -0.49752
 Alpha  occ. eigenvalues --   -0.49722  -0.48975  -0.48965  -0.45688  -0.44983
 Alpha  occ. eigenvalues --   -0.38522  -0.37629  -0.37389  -0.36489
 Alpha virt. eigenvalues --    0.03949   0.04902   0.09990   0.11196   0.15321
 Alpha virt. eigenvalues --    0.16412   0.19996   0.21639   0.26302   0.26331
 Alpha virt. eigenvalues --    0.27915   0.28205   0.29969   0.31368   0.31740

 Mulliken charges:
               1
     1  C   -0.174846
     2  C   -0.219254
     3  C   -0.174735
     4  C    0.159103
     5  C   -0.171210
     6  C   -0.218286
     7  H    0.226936
     8  H    0.222472
     9  H    0.271814
    10  H    0.276348
    11  H    0.226077
    12  N    0.488078
    13  O   -0.459304
    14  O   -0.462101
    15  C   -0.185923
    16  C   -0.221492
    17  C   -0.177051
    18  C    0.158871
    19  C   -0.169218
    20  C   -0.213793
    21  H    0.228909
    22  H    0.227766
    23  H    0.278313
    24  H    0.280447
    25  H    0.229671
    26  N    0.487488
    27  O   -0.455906
    28  O   -0.459175
 Sum of Mulliken charges =  -0.00000

 Dipole moment (field-independent basis, Debye):
    X=             -2.3839    Y=              3.2109    Z=             -2.5597  Tot=              4.7482
 Quadrupole moment (field-independent basis, Debye-Ang):
   XX=           -157.0565   YY=            -99.3735   ZZ=           -100.7483
   XY=            -18.8112   XZ=             -1.8074   YZ=              2.2262

 Normal termination of Gaussian 16 at Thu May  6 09:41:47 2021.
