 Gaussian 16, Revision A.03,
 Gaussian 16:  EM64L-G16RevA.03 25-Dec-2016

 -------------
 #p 6-31g* mp2
 -------------

 ------------------------------------------------------
 Input file generated by CHIRIPA (05-May-2021 14:57:27)
 ------------------------------------------------------
 Symbolic Z-matrix:
 Charge =  0 Multiplicity = 1

                         Standard orientation:
 ---------------------------------------------------------------------
 Center     Atomic      Atomic             Coordinates (Angstroms)
 Number     Number       Type             X           Y           Z
 ---------------------------------------------------------------------
      1          6           0        2.828872   -2.356571    0.531271
      2          6           0        2.097095   -1.513971    1.374508
      3          6           0        2.038605   -0.139121    1.127700
      4          6           0        2.726952    0.361571    0.023719
      5          6           0        3.464584   -0.452112   -0.834833
      6          6           0        3.509082   -1.823891   -0.568769
      7          1           0        2.868874   -3.423394    0.730477
      8          1           0        1.567851   -1.924880    2.229552
      9          1           0        1.479626    0.535974    1.764259
     10          1           0        3.981793   -0.013231   -1.679402
     11          1           0        4.078180   -2.475876   -1.225341
     12          7           0        2.672438    1.815437   -0.247759
     13          8           0        3.287626    2.231839   -1.226938
     14          8           0        2.015554    2.511048    0.523777
     15          6           0       -3.260521    2.323937    0.260690
     16          6           0       -4.280129    1.429004   -0.079921
     17          6           0       -4.001010    0.071627   -0.264770
     18          6           0       -2.685222   -0.358416   -0.100283
     19          6           0       -1.647624    0.508610    0.238755
     20          6           0       -1.949834    1.861699    0.418663
     21          1           0       -3.486316    3.376715    0.402367
     22          1           0       -5.298943    1.785164   -0.203260
     23          1           0       -4.771175   -0.642923   -0.528743
     24          1           0       -0.641684    0.123850    0.354791
     25          1           0       -1.155983    2.554439    0.683156
     26          7           0       -2.377509   -1.793140   -0.293358
     27          8           0       -1.210138   -2.146917   -0.142607
     28          8           0       -3.309520   -2.536735   -0.591785
 ---------------------------------------------------------------------

 SCF Done:  E(RHF) =  -868.339892496     A.U. after   16 cycles
 E2 =    -0.2601702947D+01 EUMP2 =    -0.87094159544302D+03

 The electronic state is 1-A.
 Alpha  occ. eigenvalues --  -20.61274 -20.61200 -20.60859 -20.60832 -15.86259
 Alpha  occ. eigenvalues --  -15.85883 -11.31288 -11.31002 -11.27785 -11.27713
 Alpha  occ. eigenvalues --  -11.27542 -11.27432 -11.27297 -11.27162 -11.26670
 Alpha  occ. eigenvalues --  -11.26657 -11.26524 -11.26306  -1.60299  -1.59926
 Alpha  occ. eigenvalues --   -1.39869  -1.39486  -1.19374  -1.19126  -1.08799
 Alpha  occ. eigenvalues --   -1.08563  -1.04740  -1.04465  -0.95719  -0.95449
 Alpha  occ. eigenvalues --   -0.86149  -0.85869  -0.82576  -0.82272  -0.77735
 Alpha  occ. eigenvalues --   -0.77326  -0.72486  -0.72121  -0.71611  -0.71243
 Alpha  occ. eigenvalues --   -0.70514  -0.70177  -0.65021  -0.64797  -0.64692
 Alpha  occ. eigenvalues --   -0.64421  -0.62196  -0.61718  -0.55169  -0.54978
 Alpha  occ. eigenvalues --   -0.53142  -0.52858  -0.52792  -0.52375  -0.49267
 Alpha  occ. eigenvalues --   -0.49194  -0.48878  -0.48845  -0.45340  -0.44950
 Alpha  occ. eigenvalues --   -0.37233  -0.37094  -0.36264  -0.36074
 Alpha virt. eigenvalues --    0.04740   0.05125   0.11257   0.11567   0.16397
 Alpha virt. eigenvalues --    0.16685   0.21095   0.22256   0.26479   0.27875
 Alpha virt. eigenvalues --    0.28533   0.29426   0.30902   0.31686   0.32636

 Mulliken charges:
               1
     1  C   -0.164609
     2  C   -0.200017
     3  C   -0.193236
     4  C    0.162138
     5  C   -0.171283
     6  C   -0.215661
     7  H    0.230500
     8  H    0.228416
     9  H    0.269264
    10  H    0.274943
    11  H    0.225214
    12  N    0.489737
    13  O   -0.455455
    14  O   -0.472928
    15  C   -0.170745
    16  C   -0.218786
    17  C   -0.171477
    18  C    0.155800
    19  C   -0.182526
    20  C   -0.228463
    21  H    0.227484
    22  H    0.222620
    23  H    0.273796
    24  H    0.281814
    25  H    0.243617
    26  N    0.487552
    27  O   -0.466875
    28  O   -0.460835
 Sum of Mulliken charges =  -0.00000

 Dipole moment (field-independent basis, Debye):
    X=             -0.6351    Y=             -0.2650    Z=              1.6002  Tot=              1.7419
 Quadrupole moment (field-independent basis, Debye-Ang):
   XX=            -91.8505   YY=           -112.3618   ZZ=           -102.5133
   XY=            -27.9634   XZ=             -0.8171   YZ=             -0.0020

 Normal termination of Gaussian 16 at Thu May  6 06:51:24 2021.
