 Gaussian 16, Revision A.03,
 Gaussian 16:  EM64L-G16RevA.03 25-Dec-2016

 -------------
 #p 6-31g* mp2
 -------------

 ------------------------------------------------------
 Input file generated by CHIRIPA (05-May-2021 14:57:27)
 ------------------------------------------------------
 Symbolic Z-matrix:
 Charge =  0 Multiplicity = 1

                         Standard orientation:
 ---------------------------------------------------------------------
 Center     Atomic      Atomic             Coordinates (Angstroms)
 Number     Number       Type             X           Y           Z
 ---------------------------------------------------------------------
      1          6           0        0.374224   -1.705387   -0.937017
      2          6           0        0.733187   -0.487813   -1.524536
      3          6           0        1.899580    0.174338   -1.130034
      4          6           0        2.687251   -0.412287   -0.140723
      5          6           0        2.356443   -1.624198    0.463536
      6          6           0        1.185567   -2.268701    0.053398
      7          1           0       -0.533600   -2.212907   -1.249549
      8          1           0        0.105001   -0.047989   -2.293939
      9          1           0        2.201157    1.117992   -1.568196
     10          1           0        3.002815   -2.037900    1.228043
     11          1           0        0.909274   -3.214175    0.511420
     12          7           0        3.924432    0.279361    0.285196
     13          8           0        4.601347   -0.258339    1.158867
     14          8           0        4.193794    1.346078   -0.262706
     15          6           0       -1.099091    2.635428    0.175698
     16          6           0       -1.639714    2.133025   -1.012510
     17          6           0       -2.408263    0.965197   -1.004866
     18          6           0       -2.617173    0.322374    0.214324
     19          6           0       -2.092006    0.798042    1.414836
     20          6           0       -1.326562    1.967510    1.383449
     21          1           0       -0.503269    3.543262    0.160538
     22          1           0       -1.464697    2.649645   -1.951935
     23          1           0       -2.838680    0.554294   -1.910027
     24          1           0       -2.283744    0.260986    2.335828
     25          1           0       -0.907951    2.355381    2.307770
     26          7           0       -3.429159   -0.914823    0.234984
     27          8           0       -3.598627   -1.462523    1.322155
     28          8           0       -3.880749   -1.313409   -0.836384
 ---------------------------------------------------------------------

 SCF Done:  E(RHF) =  -868.337040162     A.U. after   16 cycles
 E2 =    -0.2604131972D+01 EUMP2 =    -0.87094117213410D+03

 The electronic state is 1-A.
 Alpha  occ. eigenvalues --  -20.61672 -20.61648 -20.61008 -20.60990 -15.86694
 Alpha  occ. eigenvalues --  -15.86049 -11.31906 -11.31296 -11.28505 -11.28423
 Alpha  occ. eigenvalues --  -11.28125 -11.27860 -11.27785 -11.27466 -11.27446
 Alpha  occ. eigenvalues --  -11.27364 -11.26823 -11.26760  -1.60742  -1.60081
 Alpha  occ. eigenvalues --   -1.40296  -1.39638  -1.20079  -1.19431  -1.09481
 Alpha  occ. eigenvalues --   -1.08845  -1.05482  -1.04814  -0.96346  -0.95703
 Alpha  occ. eigenvalues --   -0.86865  -0.86228  -0.83192  -0.82542  -0.78273
 Alpha  occ. eigenvalues --   -0.77627  -0.72909  -0.72270  -0.72101  -0.71407
 Alpha  occ. eigenvalues --   -0.71159  -0.70486  -0.65731  -0.65459  -0.65081
 Alpha  occ. eigenvalues --   -0.64849  -0.62827  -0.62199  -0.55916  -0.55276
 Alpha  occ. eigenvalues --   -0.54267  -0.53549  -0.52964  -0.52620  -0.49685
 Alpha  occ. eigenvalues --   -0.49654  -0.49034  -0.49012  -0.45727  -0.45071
 Alpha  occ. eigenvalues --   -0.38282  -0.37515  -0.36933  -0.36051
 Alpha virt. eigenvalues --    0.04196   0.04890   0.10424   0.11348   0.15643
 Alpha virt. eigenvalues --    0.16494   0.20147   0.21873   0.25883   0.27253
 Alpha virt. eigenvalues --    0.28102   0.28535   0.30199   0.31527   0.31699

 Mulliken charges:
               1
     1  C   -0.179318
     2  C   -0.206275
     3  C   -0.173560
     4  C    0.157585
     5  C   -0.173026
     6  C   -0.218442
     7  H    0.234917
     8  H    0.216304
     9  H    0.269415
    10  H    0.275256
    11  H    0.227922
    12  N    0.487800
    13  O   -0.459713
    14  O   -0.463850
    15  C   -0.168071
    16  C   -0.221355
    17  C   -0.179938
    18  C    0.162739
    19  C   -0.168769
    20  C   -0.216387
    21  H    0.231354
    22  H    0.222901
    23  H    0.272550
    24  H    0.277192
    25  H    0.228782
    26  N    0.485589
    27  O   -0.457358
    28  O   -0.464245
 Sum of Mulliken charges =  -0.00000

 Dipole moment (field-independent basis, Debye):
    X=             -1.6123    Y=              1.9633    Z=             -1.3353  Tot=              2.8701
 Quadrupole moment (field-independent basis, Debye-Ang):
   XX=           -145.2251   YY=            -97.6599   ZZ=            -97.8605
   XY=            -16.3296   XZ=             -1.4486   YZ=             -1.0306

 Normal termination of Gaussian 16 at Thu May  6 19:49:41 2021.
