 Gaussian 16, Revision A.03,
 Gaussian 16:  EM64L-G16RevA.03 25-Dec-2016

 -------------
 #p 6-31g* mp2
 -------------

 ------------------------------------------------------
 Input file generated by CHIRIPA (05-May-2021 14:53:14)
 ------------------------------------------------------
 Symbolic Z-matrix:
 Charge =  0 Multiplicity = 1

                         Standard orientation:
 ---------------------------------------------------------------------
 Center     Atomic      Atomic             Coordinates (Angstroms)
 Number     Number       Type             X           Y           Z
 ---------------------------------------------------------------------
      1          6           0       -3.633554   -0.179639   -0.338951
      2          6           0       -3.156985   -1.616814   -0.552008
      3          6           0       -1.715418   -1.693036   -1.055859
      4          1           0       -3.544197    0.373451   -1.283966
      5          1           0       -2.966547    0.317874    0.378669
      6          1           0       -3.825509   -2.111894   -1.267961
      7          1           0       -3.247667   -2.166599    0.393577
      8          1           0       -1.032035   -1.223951   -0.340633
      9          1           0       -1.613160   -1.168935   -2.011611
     10          1           0       -1.395252   -2.729469   -1.201328
     11          6           0       -5.072839   -0.087024    0.164646
     12          6           0       -5.549407    1.350152    0.377703
     13          6           0       -6.990975    1.426374    0.881554
     14          1           0       -5.739845   -0.584537   -0.552974
     15          1           0       -5.162195   -0.640113    1.109661
     16          1           0       -5.458725    1.899937   -0.567881
     17          1           0       -4.880884    1.845232    1.093656
     18          1           0       -7.093232    0.902273    1.837306
     19          1           0       -7.674357    0.957288    0.166328
     20          1           0       -7.311140    2.462807    1.027024
     21          6           0        2.672786   -2.268871    0.520216
     22          6           0        2.003166   -1.501877   -0.438873
     23          6           0        2.397986   -0.185937   -0.697651
     24          6           0        3.471329    0.333582    0.024378
     25          6           0        4.158531   -0.405333    0.986172
     26          6           0        3.746438   -1.719121    1.228429
     27          1           0        2.359370   -3.290290    0.714824
     28          1           0        1.169018   -1.926211   -0.990399
     29          1           0        1.897277    0.430135   -1.434648
     30          1           0        4.986508    0.045160    1.519960
     31          1           0        4.268326   -2.312442    1.973846
     32          7           0        3.898451    1.725569   -0.240834
     33          8           0        4.847060    2.160052    0.408784
     34          8           0        3.276532    2.355769   -1.093302
 ---------------------------------------------------------------------

 SCF Done:  E(RHF) =  -669.535166483     A.U. after   15 cycles
 E2 =    -0.2091429315D+01 EUMP2 =    -0.67162659579811D+03

 The electronic state is 1-A.
 Alpha  occ. eigenvalues --  -20.60718 -20.60713 -15.85770 -11.31124 -11.27693
 Alpha  occ. eigenvalues --  -11.27666 -11.27416 -11.26713 -11.26599 -11.22274
 Alpha  occ. eigenvalues --  -11.22056 -11.21839 -11.21821 -11.21700 -11.21246
 Alpha  occ. eigenvalues --   -1.59794  -1.39348  -1.19291  -1.08871  -1.08687
 Alpha  occ. eigenvalues --   -1.04692  -1.04022  -0.96510  -0.95526  -0.87563
 Alpha  occ. eigenvalues --   -0.86075  -0.82358  -0.80114  -0.78639  -0.77397
 Alpha  occ. eigenvalues --   -0.71988  -0.71117  -0.70399  -0.65504  -0.64937
 Alpha  occ. eigenvalues --   -0.64696  -0.62077  -0.61386  -0.59899  -0.58083
 Alpha  occ. eigenvalues --   -0.55803  -0.55189  -0.53386  -0.53079  -0.52917
 Alpha  occ. eigenvalues --   -0.52555  -0.50413  -0.48746  -0.48745  -0.48399
 Alpha  occ. eigenvalues --   -0.47096  -0.46191  -0.46083  -0.44756  -0.44262
 Alpha  occ. eigenvalues --   -0.37272  -0.36272
 Alpha virt. eigenvalues --    0.05110   0.11318   0.16536   0.21009   0.22486
 Alpha virt. eigenvalues --    0.23914   0.25937   0.26307   0.27068   0.28237
 Alpha virt. eigenvalues --    0.28766   0.30114   0.30936   0.31224   0.32037

 Mulliken charges:
               1
     1  C   -0.299696
     2  C   -0.299138
     3  C   -0.486722
     4  H    0.151344
     5  H    0.151645
     6  H    0.154253
     7  H    0.153075
     8  H    0.158506
     9  H    0.157481
    10  H    0.154741
    11  C   -0.298828
    12  C   -0.300224
    13  C   -0.476008
    14  H    0.149975
    15  H    0.149788
    16  H    0.153166
    17  H    0.153325
    18  H    0.155163
    19  H    0.155262
    20  H    0.161739
    21  C   -0.173733
    22  C   -0.223875
    23  C   -0.174543
    24  C    0.158845
    25  C   -0.171350
    26  C   -0.218422
    27  H    0.225465
    28  H    0.237872
    29  H    0.275759
    30  H    0.275282
    31  H    0.223005
    32  N    0.488080
    33  O   -0.460747
    34  O   -0.460486
 Sum of Mulliken charges =  -0.00000

 Dipole moment (field-independent basis, Debye):
    X=             -1.6805    Y=             -4.8711    Z=              0.9483  Tot=              5.2394
 Quadrupole moment (field-independent basis, Debye-Ang):
   XX=           -103.4961   YY=            -98.8164   ZZ=            -92.0134
   XY=            -17.9636   XZ=              6.7923   YZ=             -0.3594

 Normal termination of Gaussian 16 at Thu May  6 08:59:26 2021.
