 Gaussian 16, Revision A.03,
 Gaussian 16:  EM64L-G16RevA.03 25-Dec-2016

 -------------
 #p 6-31g* mp2
 -------------

 ------------------------------------------------------
 Input file generated by CHIRIPA (05-May-2021 14:57:25)
 ------------------------------------------------------
 Symbolic Z-matrix:
 Charge =  0 Multiplicity = 1

                         Standard orientation:
 ---------------------------------------------------------------------
 Center     Atomic      Atomic             Coordinates (Angstroms)
 Number     Number       Type             X           Y           Z
 ---------------------------------------------------------------------
      1          6           0        2.048286    1.053475    1.967704
      2          6           0        3.212327    0.377103    2.347246
      3          6           0        4.054887   -0.182685    1.382220
      4          6           0        3.701301   -0.046683    0.040665
      5          6           0        2.548390    0.621307   -0.369059
      6          6           0        1.720610    1.173207    0.613151
      7          1           0        1.399506    1.485268    2.724034
      8          1           0        3.469312    0.282572    3.398468
      9          1           0        4.962093   -0.711511    1.648187
     10          1           0        2.318639    0.699256   -1.424784
     11          1           0        0.817235    1.697941    0.315474
     12          7           0        4.585458   -0.635130   -0.990061
     13          8           0        4.251639   -0.501563   -2.165375
     14          8           0        5.595538   -1.218780   -0.603114
     15          6           0       -2.608417    2.176903   -0.923542
     16          6           0       -1.856863    1.009628   -1.094307
     17          6           0       -2.371622   -0.229874   -0.702896
     18          6           0       -3.647150   -0.265618   -0.141610
     19          6           0       -4.420391    0.879735    0.041567
     20          6           0       -3.885531    2.108351   -0.357148
     21          1           0       -2.200731    3.135550   -1.230436
     22          1           0       -0.864752    1.059856   -1.533895
     23          1           0       -1.811369   -1.149095   -0.823590
     24          1           0       -5.406349    0.797937    0.482721
     25          1           0       -4.471458    3.013241   -0.223324
     26          7           0       -4.202743   -1.572062    0.276625
     27          8           0       -5.329040   -1.576764    0.768628
     28          8           0       -3.501398   -2.566612    0.104516
 ---------------------------------------------------------------------

 SCF Done:  E(RHF) =  -868.336894589     A.U. after   16 cycles
 E2 =    -0.2600260161D+01 EUMP2 =    -0.87093715474946D+03

 The electronic state is 1-A.
 Alpha  occ. eigenvalues --  -20.61251 -20.61245 -20.61152 -20.61138 -15.86312
 Alpha  occ. eigenvalues --  -15.86206 -11.31832 -11.31653 -11.28446 -11.28420
 Alpha  occ. eigenvalues --  -11.28306 -11.28257 -11.28177 -11.27944 -11.27555
 Alpha  occ. eigenvalues --  -11.27446 -11.27289 -11.27189  -1.60325  -1.60221
 Alpha  occ. eigenvalues --   -1.39873  -1.39774  -1.20045  -1.19824  -1.09419
 Alpha  occ. eigenvalues --   -1.09190  -1.05478  -1.05250  -0.96213  -0.96020
 Alpha  occ. eigenvalues --   -0.86885  -0.86624  -0.83054  -0.82854  -0.78089
 Alpha  occ. eigenvalues --   -0.77878  -0.72524  -0.72421  -0.71653  -0.71545
 Alpha  occ. eigenvalues --   -0.71142  -0.70920  -0.65698  -0.65637  -0.65467
 Alpha  occ. eigenvalues --   -0.65161  -0.62911  -0.62489  -0.55980  -0.55712
 Alpha  occ. eigenvalues --   -0.53858  -0.53618  -0.53535  -0.53235  -0.49300
 Alpha  occ. eigenvalues --   -0.49269  -0.49186  -0.49172  -0.45243  -0.45163
 Alpha  occ. eigenvalues --   -0.38057  -0.37782  -0.37130  -0.36787
 Alpha virt. eigenvalues --    0.04477   0.04649   0.10363   0.10836   0.15833
 Alpha virt. eigenvalues --    0.16175   0.19008   0.21839   0.24789   0.27163
 Alpha virt. eigenvalues --    0.27942   0.28538   0.30544   0.30702   0.32004

 Mulliken charges:
               1
     1  C   -0.170641
     2  C   -0.217709
     3  C   -0.169901
     4  C    0.159851
     5  C   -0.174730
     6  C   -0.219968
     7  H    0.227860
     8  H    0.226021
     9  H    0.277677
    10  H    0.270208
    11  H    0.219404
    12  N    0.488280
    13  O   -0.461423
    14  O   -0.457939
    15  C   -0.173916
    16  C   -0.223429
    17  C   -0.170005
    18  C    0.158187
    19  C   -0.169759
    20  C   -0.218574
    21  H    0.226264
    22  H    0.219705
    23  H    0.279998
    24  H    0.277858
    25  H    0.225603
    26  N    0.487898
    27  O   -0.459040
    28  O   -0.457780
 Sum of Mulliken charges =  -0.00000

 Dipole moment (field-independent basis, Debye):
    X=             -1.2426    Y=              6.5493    Z=              2.3062  Tot=              7.0538
 Quadrupole moment (field-independent basis, Debye-Ang):
   XX=           -136.0817   YY=           -107.1023   ZZ=           -101.9039
   XY=            -13.0552   XZ=             19.9374   YZ=             -0.8229

 Normal termination of Gaussian 16 at Fri May  7 08:04:45 2021.
