 Gaussian 16, Revision A.03,
 Gaussian 16:  EM64L-G16RevA.03 25-Dec-2016

 -------------
 #p 6-31g* mp2
 -------------

 ------------------------------------------------------
 Input file generated by CHIRIPA (05-May-2021 14:57:23)
 ------------------------------------------------------
 Symbolic Z-matrix:
 Charge =  0 Multiplicity = 1

                         Standard orientation:
 ---------------------------------------------------------------------
 Center     Atomic      Atomic             Coordinates (Angstroms)
 Number     Number       Type             X           Y           Z
 ---------------------------------------------------------------------
      1          6           0        1.366772   -0.260014    1.413651
      2          6           0        1.867142   -1.401871    0.779368
      3          6           0        3.100013   -1.365732    0.121136
      4          6           0        3.809246   -0.165623    0.116847
      5          6           0        3.337405    0.988842    0.739635
      6          6           0        2.102204    0.929600    1.391799
      7          1           0        0.408143   -0.297061    1.922624
      8          1           0        1.298169   -2.327116    0.794721
      9          1           0        3.510933   -2.234890   -0.377990
     10          1           0        3.927484    1.896685    0.707292
     11          1           0        1.716078    1.817935    1.883544
     12          7           0        5.115665   -0.115136   -0.576782
     13          8           0        5.721166    0.954393   -0.566176
     14          8           0        5.509397   -1.146049   -1.117920
     15          6           0       -1.704501    1.824036   -0.501671
     16          6           0       -3.011814    2.282340   -0.308247
     17          6           0       -4.066478    1.377127   -0.157190
     18          6           0       -3.776595    0.014419   -0.205013
     19          6           0       -2.484738   -0.473237   -0.396287
     20          6           0       -1.445592    0.450132   -0.544997
     21          1           0       -0.891240    2.534279   -0.618104
     22          1           0       -3.215839    3.348762   -0.274169
     23          1           0       -5.087953    1.704545   -0.006178
     24          1           0       -2.312469   -1.542290   -0.425720
     25          1           0       -0.431301    0.091336   -0.695080
     26          7           0       -4.884907   -0.953499   -0.046339
     27          8           0       -4.603250   -2.148988   -0.092302
     28          8           0       -6.014273   -0.498338    0.120989
 ---------------------------------------------------------------------

 SCF Done:  E(RHF) =  -868.336840546     A.U. after   16 cycles
 E2 =    -0.2601774738D+01 EUMP2 =    -0.87093861528460D+03

 The electronic state is 1-A.
 Alpha  occ. eigenvalues --  -20.61449 -20.61442 -20.61335 -20.61325 -15.86511
 Alpha  occ. eigenvalues --  -15.86386 -11.32041 -11.31835 -11.28675 -11.28660
 Alpha  occ. eigenvalues --  -11.28401 -11.28383 -11.28360 -11.28104 -11.27681
 Alpha  occ. eigenvalues --  -11.27661 -11.27404 -11.27293  -1.60522  -1.60406
 Alpha  occ. eigenvalues --   -1.40070  -1.39958  -1.20275  -1.19993  -1.09644
 Alpha  occ. eigenvalues --   -1.09357  -1.05687  -1.05402  -0.96422  -0.96195
 Alpha  occ. eigenvalues --   -0.87066  -0.86786  -0.83251  -0.83006  -0.78256
 Alpha  occ. eigenvalues --   -0.78067  -0.72721  -0.72599  -0.71853  -0.71733
 Alpha  occ. eigenvalues --   -0.71337  -0.71087  -0.65903  -0.65671  -0.65627
 Alpha  occ. eigenvalues --   -0.65383  -0.63006  -0.62752  -0.56166  -0.55876
 Alpha  occ. eigenvalues --   -0.54259  -0.53747  -0.53706  -0.53227  -0.49494
 Alpha  occ. eigenvalues --   -0.49467  -0.49363  -0.49353  -0.45439  -0.45346
 Alpha  occ. eigenvalues --   -0.38464  -0.37855  -0.37326  -0.36899
 Alpha virt. eigenvalues --    0.04221   0.04473   0.10184   0.10651   0.15518
 Alpha virt. eigenvalues --    0.16156   0.20183   0.21319   0.25710   0.27030
 Alpha virt. eigenvalues --    0.27570   0.28186   0.30166   0.30820   0.31713

 Mulliken charges:
               1
     1  C   -0.178722
     2  C   -0.226339
     3  C   -0.169364
     4  C    0.158183
     5  C   -0.170616
     6  C   -0.223699
     7  H    0.234134
     8  H    0.227444
     9  H    0.279371
    10  H    0.277702
    11  H    0.224778
    12  N    0.488075
    13  O   -0.458920
    14  O   -0.457728
    15  C   -0.176109
    16  C   -0.217834
    17  C   -0.171228
    18  C    0.159993
    19  C   -0.177231
    20  C   -0.227328
    21  H    0.226497
    22  H    0.225194
    23  H    0.277341
    24  H    0.272900
    25  H    0.234393
    26  N    0.487976
    27  O   -0.460613
    28  O   -0.458251
 Sum of Mulliken charges =  -0.00000

 Dipole moment (field-independent basis, Debye):
    X=             -0.5709    Y=              3.2386    Z=              1.8967  Tot=              3.7963
 Quadrupole moment (field-independent basis, Debye-Ang):
   XX=           -167.3361   YY=            -97.2454   ZZ=           -105.0992
   XY=            -15.3627   XZ=              9.9518   YZ=              0.6438

 Normal termination of Gaussian 16 at Fri May  7 09:30:44 2021.
