 Gaussian 16, Revision A.03,
 Gaussian 16:  EM64L-G16RevA.03 25-Dec-2016

 -------------
 #p 6-31g* mp2
 -------------

 ------------------------------------------------------
 Input file generated by CHIRIPA (05-May-2021 14:57:23)
 ------------------------------------------------------
 Symbolic Z-matrix:
 Charge =  0 Multiplicity = 1

                         Standard orientation:
 ---------------------------------------------------------------------
 Center     Atomic      Atomic             Coordinates (Angstroms)
 Number     Number       Type             X           Y           Z
 ---------------------------------------------------------------------
      1          6           0        6.104218    0.174480    0.154931
      2          6           0        5.549429   -0.911669   -0.529913
      3          6           0        4.162796   -1.079125   -0.591183
      4          6           0        3.356966   -0.137203    0.046556
      5          6           0        3.879587    0.955435    0.736700
      6          6           0        5.268999    1.102928    0.784941
      7          1           0        7.182468    0.296810    0.197466
      8          1           0        6.195638   -1.634276   -1.020117
      9          1           0        3.706712   -1.910736   -1.114469
     10          1           0        3.209764    1.659309    1.215570
     11          1           0        5.697069    1.947415    1.317523
     12          7           0        1.887528   -0.303915   -0.011411
     13          8           0        1.199246    0.539813    0.558702
     14          8           0        1.451888   -1.275154   -0.625861
     15          6           0       -4.321476   -2.253813    0.451671
     16          6           0       -3.024135   -2.001437   -0.006293
     17          6           0       -2.613032   -0.695832   -0.290788
     18          6           0       -3.529315    0.338226   -0.105200
     19          6           0       -4.828651    0.118886    0.349668
     20          6           0       -5.218014   -1.194713    0.627879
     21          1           0       -4.632386   -3.271144    0.670234
     22          1           0       -2.325741   -2.821991   -0.144066
     23          1           0       -1.614642   -0.472118   -0.646576
     24          1           0       -5.502391    0.957468    0.477233
     25          1           0       -6.226172   -1.387742    0.983409
     26          7           0       -3.105607    1.724643   -0.403056
     27          8           0       -3.931809    2.618246   -0.231301
     28          8           0       -1.955325    1.891462   -0.802632
 ---------------------------------------------------------------------

 SCF Done:  E(RHF) =  -868.340088514     A.U. after   16 cycles
 E2 =    -0.2599618842D+01 EUMP2 =    -0.87093970735636D+03

 The electronic state is 1-A.
 Alpha  occ. eigenvalues --  -20.61152 -20.61064 -20.59456 -20.59380 -15.86078
 Alpha  occ. eigenvalues --  -15.84467 -11.31295 -11.29771 -11.27868 -11.27806
 Alpha  occ. eigenvalues --  -11.27569 -11.26841 -11.26803 -11.26493 -11.26236
 Alpha  occ. eigenvalues --  -11.26128 -11.25520 -11.25308  -1.60137  -1.58502
 Alpha  occ. eigenvalues --   -1.39692  -1.38047  -1.19451  -1.17986  -1.08881
 Alpha  occ. eigenvalues --   -1.07422  -1.04829  -1.03362  -0.95740  -0.94242
 Alpha  occ. eigenvalues --   -0.86235  -0.84778  -0.82574  -0.81060  -0.77642
 Alpha  occ. eigenvalues --   -0.76078  -0.72297  -0.71419  -0.70694  -0.70563
 Alpha  occ. eigenvalues --   -0.69824  -0.69113  -0.65107  -0.64836  -0.63640
 Alpha  occ. eigenvalues --   -0.63381  -0.62175  -0.60669  -0.55348  -0.53951
 Alpha  occ. eigenvalues --   -0.53167  -0.52920  -0.51743  -0.51460  -0.49098
 Alpha  occ. eigenvalues --   -0.49036  -0.47477  -0.47418  -0.45116  -0.43458
 Alpha  occ. eigenvalues --   -0.37425  -0.36422  -0.36041  -0.34970
 Alpha virt. eigenvalues --    0.04890   0.06419   0.11235   0.12668   0.16409
 Alpha virt. eigenvalues --    0.17877   0.21368   0.22769   0.27299   0.28236
 Alpha virt. eigenvalues --    0.28715   0.29752   0.30954   0.32235   0.32516

 Mulliken charges:
               1
     1  C   -0.170191
     2  C   -0.218690
     3  C   -0.170706
     4  C    0.159234
     5  C   -0.169755
     6  C   -0.218743
     7  H    0.226183
     8  H    0.223341
     9  H    0.273961
    10  H    0.279248
    11  H    0.224916
    12  N    0.489321
    13  O   -0.449453
    14  O   -0.472211
    15  C   -0.171574
    16  C   -0.223133
    17  C   -0.172262
    18  C    0.155061
    19  C   -0.172182
    20  C   -0.220395
    21  H    0.220149
    22  H    0.226007
    23  H    0.297792
    24  H    0.270979
    25  H    0.217647
    26  N    0.487032
    27  O   -0.469225
    28  O   -0.452349
 Sum of Mulliken charges =  -0.00000

 Dipole moment (field-independent basis, Debye):
    X=              4.3006    Y=             -4.1602    Z=              1.2577  Tot=              6.1143
 Quadrupole moment (field-independent basis, Debye-Ang):
   XX=            -58.0510   YY=           -105.5729   ZZ=           -104.6933
   XY=             16.1874   XZ=             -4.0311   YZ=              4.1479

 Normal termination of Gaussian 16 at Thu May  6 19:36:49 2021.
