 Gaussian 16, Revision A.03,
 Gaussian 16:  EM64L-G16RevA.03 25-Dec-2016

 -------------
 #p 6-31g* mp2
 -------------

 ------------------------------------------------------
 Input file generated by CHIRIPA (05-May-2021 14:53:14)
 ------------------------------------------------------
 Symbolic Z-matrix:
 Charge =  0 Multiplicity = 1

                         Standard orientation:
 ---------------------------------------------------------------------
 Center     Atomic      Atomic             Coordinates (Angstroms)
 Number     Number       Type             X           Y           Z
 ---------------------------------------------------------------------
      1          6           0       -4.825000   -0.008336    0.372687
      2          6           0       -5.568962    0.028642   -0.962655
      3          6           0       -7.088146   -0.010240   -0.794250
      4          1           0       -5.111563   -0.916916    0.919779
      5          1           0       -5.148484    0.842361    0.988372
      6          1           0       -5.243149   -0.821090   -1.576184
      7          1           0       -5.280448    0.937143   -1.506715
      8          1           0       -7.432298    0.845017   -0.203745
      9          1           0       -7.394787   -0.923206   -0.273609
     10          1           0       -7.600092    0.017105   -1.761216
     11          6           0       -3.305394    0.029901    0.220817
     12          6           0       -2.561433   -0.007076    1.556159
     13          6           0       -1.042248    0.031805    1.387754
     14          1           0       -2.981910   -0.820796   -0.394867
     15          1           0       -3.018831    0.938481   -0.326275
     16          1           0       -2.849946   -0.915578    2.100220
     17          1           0       -2.887245    0.842655    2.169688
     18          1           0       -0.735607    0.944771    0.867113
     19          1           0       -0.698096   -0.823452    0.797250
     20          1           0       -0.530303    0.004460    2.354721
     21          6           0        3.227649    2.514123   -0.230296
     22          6           0        2.043088    1.838451   -0.541424
     23          6           0        2.002837    0.440985   -0.545358
     24          6           0        3.170936   -0.252294   -0.231987
     25          6           0        4.366457    0.392145    0.082202
     26          6           0        4.383517    1.790091    0.079978
     27          1           0        3.249909    3.599895   -0.229632
     28          1           0        1.143902    2.398147   -0.782780
     29          1           0        1.099303   -0.107467   -0.782515
     30          1           0        5.246750   -0.193166    0.318666
     31          1           0        5.304879    2.312167    0.321993
     32          7           0        3.140601   -1.731983   -0.232891
     33          8           0        4.183256   -2.319648    0.046676
     34          8           0        2.074745   -2.276080   -0.513150
 ---------------------------------------------------------------------

 SCF Done:  E(RHF) =  -669.535147742     A.U. after   15 cycles
 E2 =    -0.2092098471D+01 EUMP2 =    -0.67162724621282D+03

 The electronic state is 1-A.
 Alpha  occ. eigenvalues --  -20.60756 -20.60750 -15.85800 -11.31108 -11.27708
 Alpha  occ. eigenvalues --  -11.27643 -11.27454 -11.26708 -11.26691 -11.21771
 Alpha  occ. eigenvalues --  -11.21712 -11.21590 -11.21497 -11.21328 -11.21151
 Alpha  occ. eigenvalues --   -1.59823  -1.39379  -1.19299  -1.08705  -1.08593
 Alpha  occ. eigenvalues --   -1.04704  -1.03691  -0.96164  -0.95540  -0.87189
 Alpha  occ. eigenvalues --   -0.86096  -0.82383  -0.79777  -0.78418  -0.77416
 Alpha  occ. eigenvalues --   -0.72022  -0.71141  -0.70418  -0.65226  -0.64954
 Alpha  occ. eigenvalues --   -0.64713  -0.62082  -0.61082  -0.59510  -0.57759
 Alpha  occ. eigenvalues --   -0.55453  -0.55217  -0.53158  -0.52869  -0.52788
 Alpha  occ. eigenvalues --   -0.52412  -0.50094  -0.48777  -0.48774  -0.48066
 Alpha  occ. eigenvalues --   -0.46782  -0.45957  -0.45863  -0.44786  -0.43941
 Alpha  occ. eigenvalues --   -0.37288  -0.36256
 Alpha virt. eigenvalues --    0.05080   0.11316   0.16503   0.20736   0.22824
 Alpha virt. eigenvalues --    0.24070   0.25946   0.26297   0.27542   0.27903
 Alpha virt. eigenvalues --    0.29136   0.29914   0.31615   0.31788   0.32384

 Mulliken charges:
               1
     1  C   -0.298280
     2  C   -0.299869
     3  C   -0.475839
     4  H    0.151818
     5  H    0.148937
     6  H    0.153589
     7  H    0.150226
     8  H    0.154734
     9  H    0.156265
    10  H    0.160592
    11  C   -0.299102
    12  C   -0.299885
    13  C   -0.483778
    14  H    0.153037
    15  H    0.143776
    16  H    0.156159
    17  H    0.150863
    18  H    0.143847
    19  H    0.167278
    20  H    0.164588
    21  C   -0.170714
    22  C   -0.220913
    23  C   -0.164879
    24  C    0.155365
    25  C   -0.170732
    26  C   -0.219069
    27  H    0.225253
    28  H    0.222791
    29  H    0.279384
    30  H    0.275270
    31  H    0.223065
    32  N    0.488746
    33  O   -0.460263
    34  O   -0.462257
 Sum of Mulliken charges =  -0.00000

 Dipole moment (field-independent basis, Debye):
    X=              0.0553    Y=              5.1071    Z=              0.0493  Tot=              5.1076
 Quadrupole moment (field-independent basis, Debye-Ang):
   XX=            -90.5353   YY=            -97.0411   ZZ=            -95.2069
   XY=             16.7884   XZ=              1.3348   YZ=             -1.2978

 Normal termination of Gaussian 16 at Thu May  6 18:45:24 2021.
