 Gaussian 16, Revision A.03,
 Gaussian 16:  EM64L-G16RevA.03 25-Dec-2016

 -------------
 #p 6-31g* mp2
 -------------

 ------------------------------------------------------
 Input file generated by CHIRIPA (05-May-2021 14:57:25)
 ------------------------------------------------------
 Symbolic Z-matrix:
 Charge =  0 Multiplicity = 1

                         Standard orientation:
 ---------------------------------------------------------------------
 Center     Atomic      Atomic             Coordinates (Angstroms)
 Number     Number       Type             X           Y           Z
 ---------------------------------------------------------------------
      1          6           0        0.686344   -0.287164   -0.666688
      2          6           0        1.449103   -1.443740   -0.474198
      3          6           0        2.830433   -1.358484   -0.276188
      4          6           0        3.418947   -0.094783   -0.276614
      5          6           0        2.686094    1.075891   -0.465662
      6          6           0        1.306181    0.966749   -0.661814
      7          1           0       -0.386156   -0.362671   -0.819785
      8          1           0        0.970416   -2.418877   -0.477495
      9          1           0        3.444851   -2.237675   -0.124757
     10          1           0        3.191580    2.033926   -0.457229
     11          1           0        0.716319    1.866658   -0.811051
     12          7           0        4.880549    0.008117   -0.067973
     13          8           0        5.375133    1.133285   -0.072694
     14          8           0        5.503893   -1.038345    0.096330
     15          6           0       -1.443733    0.527817    2.095636
     16          6           0       -2.136811   -0.686712    2.062689
     17          6           0       -3.099875   -0.928143    1.078429
     18          6           0       -3.345726    0.071517    0.138468
     19          6           0       -2.671856    1.291825    0.144909
     20          6           0       -1.712993    1.511474    1.138328
     21          1           0       -0.697233    0.706907    2.863790
     22          1           0       -1.929774   -1.452447    2.804868
     23          1           0       -3.651134   -1.859352    1.029641
     24          1           0       -2.900091    2.036028   -0.608410
     25          1           0       -1.176280    2.455640    1.161474
     26          7           0       -4.363054   -0.172546   -0.908372
     27          8           0       -4.561203    0.724297   -1.725100
     28          8           0       -4.943025   -1.256065   -0.892336
 ---------------------------------------------------------------------

 SCF Done:  E(RHF) =  -868.336043155     A.U. after   16 cycles
 E2 =    -0.2604035339D+01 EUMP2 =    -0.87094007849448D+03

 The electronic state is 1-A.
 Alpha  occ. eigenvalues --  -20.61784 -20.61779 -20.61055 -20.61050 -15.86848
 Alpha  occ. eigenvalues --  -15.86115 -11.32414 -11.31468 -11.28951 -11.28943
 Alpha  occ. eigenvalues --  -11.28573 -11.28109 -11.28079 -11.27925 -11.27898
 Alpha  occ. eigenvalues --  -11.27680 -11.27060 -11.26996  -1.60863  -1.60135
 Alpha  occ. eigenvalues --   -1.40408  -1.39688  -1.20594  -1.19664  -1.09899
 Alpha  occ. eigenvalues --   -1.09026  -1.05988  -1.05083  -0.96698  -0.95866
 Alpha  occ. eigenvalues --   -0.87342  -0.86461  -0.83520  -0.82716  -0.78577
 Alpha  occ. eigenvalues --   -0.77778  -0.73040  -0.72329  -0.72222  -0.71551
 Alpha  occ. eigenvalues --   -0.71466  -0.70741  -0.66169  -0.65953  -0.65304
 Alpha  occ. eigenvalues --   -0.65090  -0.63297  -0.62429  -0.56345  -0.55919
 Alpha  occ. eigenvalues --   -0.54114  -0.53996  -0.53201  -0.53132  -0.49821
 Alpha  occ. eigenvalues --   -0.49796  -0.49087  -0.49085  -0.45768  -0.45098
 Alpha  occ. eigenvalues --   -0.38928  -0.37763  -0.37134  -0.36595
 Alpha virt. eigenvalues --    0.03901   0.04810   0.09608   0.11362   0.15296
 Alpha virt. eigenvalues --    0.16307   0.19767   0.21577   0.25158   0.27360
 Alpha virt. eigenvalues --    0.27739   0.28178   0.29444   0.31339   0.31740

 Mulliken charges:
               1
     1  C   -0.165674
     2  C   -0.224178
     3  C   -0.170564
     4  C    0.156582
     5  C   -0.172402
     6  C   -0.223497
     7  H    0.234862
     8  H    0.223859
     9  H    0.275897
    10  H    0.274629
    11  H    0.215968
    12  N    0.488162
    13  O   -0.460951
    14  O   -0.460103
    15  C   -0.165017
    16  C   -0.220019
    17  C   -0.175364
    18  C    0.156413
    19  C   -0.184302
    20  C   -0.220484
    21  H    0.232946
    22  H    0.228489
    23  H    0.279068
    24  H    0.277809
    25  H    0.225202
    26  N    0.487732
    27  O   -0.457835
    28  O   -0.457229
 Sum of Mulliken charges =  -0.00000

 Dipole moment (field-independent basis, Debye):
    X=             -1.8070    Y=              0.4098    Z=              3.1318  Tot=              3.6389
 Quadrupole moment (field-independent basis, Debye-Ang):
   XX=           -165.1708   YY=            -95.6663   ZZ=           -103.5578
   XY=             -2.7817   XZ=            -13.5242   YZ=             -1.8461

 Normal termination of Gaussian 16 at Thu May  6 06:43:26 2021.
