 Gaussian 16, Revision A.03,
 Gaussian 16:  EM64L-G16RevA.03 25-Dec-2016

 -------------
 #p 6-31g* mp2
 -------------

 ------------------------------------------------------
 Input file generated by CHIRIPA (05-May-2021 14:53:15)
 ------------------------------------------------------
 Symbolic Z-matrix:
 Charge =  0 Multiplicity = 1

                         Standard orientation:
 ---------------------------------------------------------------------
 Center     Atomic      Atomic             Coordinates (Angstroms)
 Number     Number       Type             X           Y           Z
 ---------------------------------------------------------------------
      1          6           0        3.392022    0.698301   -0.175768
      2          6           0        4.263203    1.926957    0.087737
      3          6           0        3.641415    3.217926   -0.445716
      4          1           0        3.219051    0.604324   -1.256599
      5          1           0        2.406765    0.850105    0.286419
      6          1           0        5.246990    1.772296   -0.373629
      7          1           0        4.434279    2.017911    1.168050
      8          1           0        2.668789    3.399398    0.022970
      9          1           0        3.486117    3.152388   -1.527469
     10          1           0        4.280766    4.083629   -0.246597
     11          6           0        4.000233   -0.600001    0.351696
     12          6           0        3.129052   -1.828657    0.088191
     13          6           0        3.750840   -3.119626    0.621644
     14          1           0        4.985490   -0.751806   -0.110492
     15          1           0        4.173204   -0.506024    1.432527
     16          1           0        2.957976   -1.919611   -0.992122
     17          1           0        2.145265   -1.673996    0.549557
     18          1           0        3.906138   -3.054088    1.703397
     19          1           0        4.723466   -3.301099    0.152958
     20          1           0        3.111489   -3.985329    0.422525
     21          6           0       -5.294308    0.531437    0.430245
     22          6           0       -4.279365    1.439688    0.748824
     23          6           0       -2.942403    1.134517    0.476883
     24          6           0       -2.654928   -0.093488   -0.116960
     25          6           0       -3.643741   -1.019307   -0.446199
     26          6           0       -4.973821   -0.693003   -0.165201
     27          1           0       -6.330219    0.776709    0.645013
     28          1           0       -4.525316    2.391350    1.211310
     29          1           0       -2.136905    1.819209    0.713079
     30          1           0       -3.367542   -1.960111   -0.906655
     31          1           0       -5.759966   -1.400297   -0.413709
     32          7           0       -1.243189   -0.427744   -0.409647
     33          8           0       -1.016114   -1.516255   -0.933306
     34          8           0       -0.390474    0.405104   -0.109852
 ---------------------------------------------------------------------

 SCF Done:  E(RHF) =  -669.536216660     A.U. after   15 cycles
 E2 =    -0.2091580261D+01 EUMP2 =    -0.67162779692106D+03

 The electronic state is 1-A.
 Alpha  occ. eigenvalues --  -20.61022 -20.61017 -15.86048 -11.31349 -11.27909
 Alpha  occ. eigenvalues --  -11.27904 -11.27640 -11.26909 -11.26899 -11.20408
 Alpha  occ. eigenvalues --  -11.20080 -11.19955 -11.19892 -11.19801 -11.19651
 Alpha  occ. eigenvalues --   -1.60073  -1.39631  -1.19513  -1.08920  -1.06958
 Alpha  occ. eigenvalues --   -1.04906  -1.02198  -0.95765  -0.94675  -0.86307
 Alpha  occ. eigenvalues --   -0.85704  -0.82602  -0.78229  -0.77656  -0.76697
 Alpha  occ. eigenvalues --   -0.72260  -0.71387  -0.70621  -0.65169  -0.64908
 Alpha  occ. eigenvalues --   -0.63601  -0.62253  -0.59615  -0.58044  -0.56259
 Alpha  occ. eigenvalues --   -0.55410  -0.53984  -0.53238  -0.52997  -0.51430
 Alpha  occ. eigenvalues --   -0.51097  -0.49065  -0.49013  -0.48639  -0.46549
 Alpha  occ. eigenvalues --   -0.45248  -0.45054  -0.44277  -0.44056  -0.42404
 Alpha  occ. eigenvalues --   -0.37490  -0.36505
 Alpha virt. eigenvalues --    0.04861   0.11150   0.16364   0.21277   0.24254
 Alpha virt. eigenvalues --    0.25507   0.27208   0.27913   0.28276   0.28964
 Alpha virt. eigenvalues --    0.29395   0.30906   0.32368   0.32620   0.33020

 Mulliken charges:
               1
     1  C   -0.304041
     2  C   -0.298675
     3  C   -0.473720
     4  H    0.148802
     5  H    0.173339
     6  H    0.147077
     7  H    0.147162
     8  H    0.154956
     9  H    0.154264
    10  H    0.154249
    11  C   -0.298257
    12  C   -0.298326
    13  C   -0.475650
    14  H    0.142656
    15  H    0.143314
    16  H    0.154477
    17  H    0.164697
    18  H    0.149923
    19  H    0.150108
    20  H    0.158598
    21  C   -0.170496
    22  C   -0.218534
    23  C   -0.170717
    24  C    0.157653
    25  C   -0.170387
    26  C   -0.218605
    27  H    0.226201
    28  H    0.224019
    29  H    0.275532
    30  H    0.276000
    31  H    0.224011
    32  N    0.492288
    33  O   -0.458397
    34  O   -0.463521
 Sum of Mulliken charges =  -0.00000

 Dipole moment (field-independent basis, Debye):
    X=             -5.4569    Y=              1.1476    Z=              0.9692  Tot=              5.6599
 Quadrupole moment (field-independent basis, Debye-Ang):
   XX=            -70.2710   YY=            -93.1101   ZZ=            -94.4775
   XY=             -1.0692   XZ=             -2.3903   YZ=              2.4112

 Normal termination of Gaussian 16 at Wed May  5 18:40:16 2021.
