 Gaussian 16, Revision A.03,
 Gaussian 16:  EM64L-G16RevA.03 25-Dec-2016

 -------------
 #p 6-31g* mp2
 -------------

 ------------------------------------------------------
 Input file generated by CHIRIPA (05-May-2021 14:57:21)
 ------------------------------------------------------
 Symbolic Z-matrix:
 Charge =  0 Multiplicity = 1

                         Standard orientation:
 ---------------------------------------------------------------------
 Center     Atomic      Atomic             Coordinates (Angstroms)
 Number     Number       Type             X           Y           Z
 ---------------------------------------------------------------------
      1          6           0        1.194492   -2.056202   -0.254253
      2          6           0        0.875248   -0.742849   -0.614403
      3          6           0        1.835009    0.270105   -0.528782
      4          6           0        3.109870   -0.067196   -0.076843
      5          6           0        3.458537   -1.366294    0.289309
      6          6           0        2.482846   -2.363192    0.195661
      7          1           0        0.442739   -2.836853   -0.323883
      8          1           0       -0.124494   -0.501529   -0.964152
      9          1           0        1.614860    1.295179   -0.801135
     10          1           0        4.463666   -1.576213    0.634370
     11          1           0        2.733605   -3.382287    0.476036
     12          7           0        4.134358    0.996674    0.018050
     13          8           0        5.250305    0.673642    0.419236
     14          8           0        3.802006    2.133422   -0.310557
     15          6           0       -2.700489    2.752646    0.178555
     16          6           0       -2.623350    2.001268    1.355841
     17          6           0       -2.755200    0.609908    1.320052
     18          6           0       -2.964275   -0.000133    0.084160
     19          6           0       -3.045796    0.720948   -1.106085
     20          6           0       -2.911095    2.111219   -1.046491
     21          1           0       -2.596957    3.833065    0.215603
     22          1           0       -2.459861    2.496725    2.308647
     23          1           0       -2.699597    0.003922    2.216214
     24          1           0       -3.209506    0.198764   -2.040933
     25          1           0       -2.971434    2.692202   -1.962386
     26          7           0       -3.105368   -1.472527    0.033672
     27          8           0       -3.288943   -1.986090   -1.067778
     28          8           0       -3.029711   -2.085146    1.096503
 ---------------------------------------------------------------------

 SCF Done:  E(RHF) =  -868.339039604     A.U. after   16 cycles
 E2 =    -0.2600617378D+01 EUMP2 =    -0.87093965698196D+03

 The electronic state is 1-A.
 Alpha  occ. eigenvalues --  -20.61848 -20.61832 -20.60705 -20.60689 -15.86877
 Alpha  occ. eigenvalues --  -15.85750 -11.32104 -11.30974 -11.28656 -11.28591
 Alpha  occ. eigenvalues --  -11.28277 -11.27603 -11.27558 -11.27541 -11.27524
 Alpha  occ. eigenvalues --  -11.27119 -11.26457 -11.26446  -1.60933  -1.59779
 Alpha  occ. eigenvalues --   -1.40479  -1.39337  -1.20263  -1.19124  -1.09664
 Alpha  occ. eigenvalues --   -1.08518  -1.05611  -1.04514  -0.96517  -0.95380
 Alpha  occ. eigenvalues --   -0.87005  -0.85910  -0.83333  -0.82227  -0.78418
 Alpha  occ. eigenvalues --   -0.77325  -0.73076  -0.72304  -0.71965  -0.71294
 Alpha  occ. eigenvalues --   -0.71102  -0.70153  -0.65878  -0.65565  -0.64763
 Alpha  occ. eigenvalues --   -0.64515  -0.62937  -0.61889  -0.56060  -0.54941
 Alpha  occ. eigenvalues --   -0.54010  -0.53662  -0.52838  -0.52530  -0.49854
 Alpha  occ. eigenvalues --   -0.49836  -0.48735  -0.48712  -0.45899  -0.44775
 Alpha  occ. eigenvalues --   -0.38218  -0.37233  -0.37037  -0.36115
 Alpha virt. eigenvalues --    0.04059   0.05224   0.10332   0.11538   0.15612
 Alpha virt. eigenvalues --    0.16768   0.20747   0.21666   0.26639   0.27191
 Alpha virt. eigenvalues --    0.27691   0.28631   0.30416   0.31180   0.31952

 Mulliken charges:
               1
     1  C   -0.172437
     2  C   -0.223238
     3  C   -0.173590
     4  C    0.157719
     5  C   -0.171622
     6  C   -0.219122
     7  H    0.238290
     8  H    0.224456
     9  H    0.271482
    10  H    0.274616
    11  H    0.224774
    12  N    0.488275
    13  O   -0.460644
    14  O   -0.463850
    15  C   -0.170728
    16  C   -0.217394
    17  C   -0.169801
    18  C    0.153299
    19  C   -0.181610
    20  C   -0.218476
    21  H    0.231347
    22  H    0.228820
    23  H    0.278192
    24  H    0.276831
    25  H    0.227765
    26  N    0.486440
    27  O   -0.461753
    28  O   -0.458040
 Sum of Mulliken charges =  -0.00000

 Dipole moment (field-independent basis, Debye):
    X=             -3.3700    Y=              1.4864    Z=             -0.0160  Tot=              3.6832
 Quadrupole moment (field-independent basis, Debye-Ang):
   XX=           -129.2265   YY=           -102.1455   ZZ=            -99.8358
   XY=            -30.3176   XZ=              0.4848   YZ=             -0.7122

 Normal termination of Gaussian 16 at Thu May  6 14:28:24 2021.
