 Gaussian 16, Revision A.03,
 Gaussian 16:  EM64L-G16RevA.03 25-Dec-2016

 -------------
 #p 6-31g* mp2
 -------------

 ------------------------------------------------------
 Input file generated by CHIRIPA (05-May-2021 14:55:23)
 ------------------------------------------------------
 Symbolic Z-matrix:
 Charge =  0 Multiplicity = 1

                         Standard orientation:
 ---------------------------------------------------------------------
 Center     Atomic      Atomic             Coordinates (Angstroms)
 Number     Number       Type             X           Y           Z
 ---------------------------------------------------------------------
      1          6           0        2.617234    2.461266    0.146676
      2          6           0        3.962107    2.296853   -0.200895
      3          6           0        4.512280    1.017543   -0.324279
      4          6           0        3.685089   -0.080202   -0.091900
      5          6           0        2.341529    0.050996    0.255844
      6          6           0        1.812656    1.339789    0.373536
      7          1           0        2.198119    3.458748    0.240313
      8          1           0        4.589318    3.165993   -0.377665
      9          1           0        5.550234    0.861486   -0.592077
     10          1           0        1.741215   -0.834517    0.425866
     11          1           0        0.767874    1.464458    0.643598
     12          7           0        4.256258   -1.439570   -0.219508
     13          8           0        3.506462   -2.390550   -0.009555
     14          8           0        5.442921   -1.528323   -0.527065
     15          6           0       -5.292467   -0.474801   -0.029501
     16          6           0       -6.327305    0.576339   -0.432244
     17          6           0       -7.714859   -0.020583   -0.669251
     18          1           0       -5.234094   -1.241961   -0.813721
     19          1           0       -5.633777   -0.984871    0.881944
     20          1           0       -5.983480    1.085226   -1.341879
     21          1           0       -6.383084    1.341188    0.352937
     22          1           0       -8.082799   -0.511988    0.237250
     23          1           0       -7.680926   -0.769405   -1.467195
     24          1           0       -8.439015    0.748292   -0.956112
     25          6           0       -3.900373    0.106574    0.210925
     26          6           0       -2.865535   -0.944564    0.613668
     27          6           0       -1.477980   -0.347644    0.850674
     28          1           0       -3.559063    0.616644   -0.700520
     29          1           0       -3.958747    0.873735    0.995145
     30          1           0       -2.809756   -1.709415   -0.171514
     31          1           0       -3.209359   -1.453452    1.523302
     32          1           0       -1.511915    0.401178    1.648619
     33          1           0       -1.110041    0.143761   -0.055826
     34          1           0       -0.753826   -1.116519    1.137536
 ---------------------------------------------------------------------

 SCF Done:  E(RHF) =  -669.535076417     A.U. after   15 cycles
 E2 =    -0.2091786585D+01 EUMP2 =    -0.67162686300215D+03

 The electronic state is 1-A.
 Alpha  occ. eigenvalues --  -20.60682 -20.60677 -15.85732 -11.31058 -11.27636
 Alpha  occ. eigenvalues --  -11.27580 -11.27356 -11.26651 -11.26532 -11.22304
 Alpha  occ. eigenvalues --  -11.22182 -11.21978 -11.21968 -11.21799 -11.21358
 Alpha  occ. eigenvalues --   -1.59758  -1.39312  -1.19226  -1.08976  -1.08630
 Alpha  occ. eigenvalues --   -1.04630  -1.04118  -0.96623  -0.95472  -0.87669
 Alpha  occ. eigenvalues --   -0.86020  -0.82309  -0.80218  -0.78757  -0.77338
 Alpha  occ. eigenvalues --   -0.71953  -0.71080  -0.70346  -0.65599  -0.64875
 Alpha  occ. eigenvalues --   -0.64647  -0.62035  -0.61487  -0.59976  -0.58200
 Alpha  occ. eigenvalues --   -0.55907  -0.55142  -0.53296  -0.53271  -0.52956
 Alpha  occ. eigenvalues --   -0.52474  -0.50548  -0.48722  -0.48709  -0.48468
 Alpha  occ. eigenvalues --   -0.47200  -0.46303  -0.46200  -0.44726  -0.44362
 Alpha  occ. eigenvalues --   -0.37216  -0.36215
 Alpha virt. eigenvalues --    0.05159   0.11411   0.16612   0.20585   0.22440
 Alpha virt. eigenvalues --    0.23776   0.25676   0.26126   0.26576   0.27884
 Alpha virt. eigenvalues --    0.28915   0.29950   0.30687   0.31547   0.32118

 Mulliken charges:
               1
     1  C   -0.171669
     2  C   -0.218706
     3  C   -0.171057
     4  C    0.159279
     5  C   -0.176137
     6  C   -0.225723
     7  H    0.225132
     8  H    0.222734
     9  H    0.275031
    10  H    0.278429
    11  H    0.234274
    12  N    0.488081
    13  O   -0.460910
    14  O   -0.460876
    15  C   -0.298977
    16  C   -0.299989
    17  C   -0.476051
    18  H    0.151720
    19  H    0.151012
    20  H    0.152001
    21  H    0.151693
    22  H    0.155946
    23  H    0.156256
    24  H    0.161046
    25  C   -0.299478
    26  C   -0.299459
    27  C   -0.488335
    28  H    0.149297
    29  H    0.148843
    30  H    0.157423
    31  H    0.156096
    32  H    0.154163
    33  H    0.153581
    34  H    0.165331
 Sum of Mulliken charges =  -0.00000

 Dipole moment (field-independent basis, Debye):
    X=             -2.2812    Y=              4.7200    Z=              0.4545  Tot=              5.2621
 Quadrupole moment (field-independent basis, Debye-Ang):
   XX=           -106.3123   YY=            -95.3243   ZZ=            -94.4773
   XY=             19.8503   XZ=              0.1958   YZ=             -0.9566

 Normal termination of Gaussian 16 at Thu May  6 12:37:01 2021.
