 Gaussian 16, Revision A.03,
 Gaussian 16:  EM64L-G16RevA.03 25-Dec-2016

 -------------
 #p 6-31g* mp2
 -------------

 ------------------------------------------------------
 Input file generated by CHIRIPA (05-May-2021 14:55:25)
 ------------------------------------------------------
 Symbolic Z-matrix:
 Charge =  0 Multiplicity = 1

                         Standard orientation:
 ---------------------------------------------------------------------
 Center     Atomic      Atomic             Coordinates (Angstroms)
 Number     Number       Type             X           Y           Z
 ---------------------------------------------------------------------
      1          6           0       -1.681862    1.235175    0.772584
      2          6           0       -2.795119    1.292412    1.617512
      3          6           0       -3.966751    0.600677    1.296062
      4          6           0       -3.990441   -0.141899    0.116524
      5          6           0       -2.897804   -0.218583   -0.745772
      6          6           0       -1.736661    0.481190   -0.404286
      7          1           0       -0.775784    1.775654    1.030076
      8          1           0       -2.755420    1.877168    2.532132
      9          1           0       -4.843181    0.627643    1.932112
     10          1           0       -2.967499   -0.809915   -1.650695
     11          1           0       -0.873620    0.434921   -1.062362
     12          7           0       -5.225244   -0.878462   -0.234386
     13          8           0       -5.220685   -1.525566   -1.279313
     14          8           0       -6.174259   -0.794730    0.542142
     15          6           0        5.538043    0.057550    0.101302
     16          6           0        6.109142   -1.318407    0.445646
     17          6           0        7.491538   -1.239275    1.094116
     18          1           0        6.231993    0.577109   -0.573557
     19          1           0        5.480542    0.662533    1.016772
     20          1           0        6.164254   -1.921092   -0.469968
     21          1           0        5.413659   -1.834827    1.119612
     22          1           0        7.448999   -0.660583    2.022505
     23          1           0        8.203859   -0.747339    0.423893
     24          1           0        7.880940   -2.234085    1.331978
     25          6           0        4.156501   -0.005059   -0.547660
     26          6           0        3.585402    1.370899   -0.892003
     27          6           0        2.203006    1.291767   -1.540473
     28          1           0        4.214001   -0.610041   -1.463129
     29          1           0        3.462550   -0.524617    0.127200
     30          1           0        4.280885    1.887319   -1.565969
     31          1           0        3.530290    1.973584    0.023610
     32          1           0        1.490684    0.799831   -0.870250
     33          1           0        2.245544    0.713075   -2.468862
     34          1           0        1.813603    2.286577   -1.778335
 ---------------------------------------------------------------------

 SCF Done:  E(RHF) =  -669.535557051     A.U. after   15 cycles
 E2 =    -0.2090901877D+01 EUMP2 =    -0.67162645892738D+03

 The electronic state is 1-A.
 Alpha  occ. eigenvalues --  -20.60717 -20.60712 -15.85769 -11.31125 -11.27695
 Alpha  occ. eigenvalues --  -11.27677 -11.27426 -11.26714 -11.26647 -11.22551
 Alpha  occ. eigenvalues --  -11.22330 -11.22142 -11.22094 -11.21973 -11.21481
 Alpha  occ. eigenvalues --   -1.59793  -1.39346  -1.19294  -1.09151  -1.08692
 Alpha  occ. eigenvalues --   -1.04694  -1.04286  -0.96759  -0.95529  -0.87788
 Alpha  occ. eigenvalues --   -0.86092  -0.82359  -0.80366  -0.78920  -0.77408
 Alpha  occ. eigenvalues --   -0.71988  -0.71115  -0.70406  -0.65792  -0.64945
 Alpha  occ. eigenvalues --   -0.64717  -0.62096  -0.61641  -0.60137  -0.58337
 Alpha  occ. eigenvalues --   -0.56055  -0.55197  -0.53478  -0.53237  -0.53024
 Alpha  occ. eigenvalues --   -0.52712  -0.50692  -0.48769  -0.48744  -0.48639
 Alpha  occ. eigenvalues --   -0.47378  -0.46471  -0.46369  -0.44754  -0.44518
 Alpha  occ. eigenvalues --   -0.37278  -0.36296
 Alpha virt. eigenvalues --    0.05122   0.11324   0.16619   0.20041   0.22333
 Alpha virt. eigenvalues --    0.23739   0.25418   0.26076   0.26972   0.27885
 Alpha virt. eigenvalues --    0.28904   0.30246   0.30860   0.31207   0.31749

 Mulliken charges:
               1
     1  C   -0.173069
     2  C   -0.218504
     3  C   -0.171386
     4  C    0.158857
     5  C   -0.171663
     6  C   -0.224721
     7  H    0.225609
     8  H    0.223020
     9  H    0.275334
    10  H    0.275770
    11  H    0.232791
    12  N    0.487971
    13  O   -0.460489
    14  O   -0.460650
    15  C   -0.298779
    16  C   -0.300209
    17  C   -0.476078
    18  H    0.151110
    19  H    0.149563
    20  H    0.153068
    21  H    0.152405
    22  H    0.155384
    23  H    0.155923
    24  H    0.161928
    25  C   -0.299154
    26  C   -0.299485
    27  C   -0.482655
    28  H    0.151555
    29  H    0.149162
    30  H    0.156353
    31  H    0.151379
    32  H    0.146905
    33  H    0.160267
    34  H    0.162488
 Sum of Mulliken charges =  -0.00000

 Dipole moment (field-independent basis, Debye):
    X=              4.6020    Y=              2.5923    Z=              1.1973  Tot=              5.4159
 Quadrupole moment (field-independent basis, Debye-Ang):
   XX=           -129.0632   YY=            -95.6463   ZZ=            -90.4739
   XY=            -11.8001   XZ=             -7.5738   YZ=              1.8522

 Normal termination of Gaussian 16 at Thu May  6 11:04:55 2021.
