 Gaussian 16, Revision A.03,
 Gaussian 16:  EM64L-G16RevA.03 25-Dec-2016

 -------------
 #p 6-31g* mp2
 -------------

 ------------------------------------------------------
 Input file generated by CHIRIPA (05-May-2021 14:53:13)
 ------------------------------------------------------
 Symbolic Z-matrix:
 Charge =  0 Multiplicity = 1

                         Standard orientation:
 ---------------------------------------------------------------------
 Center     Atomic      Atomic             Coordinates (Angstroms)
 Number     Number       Type             X           Y           Z
 ---------------------------------------------------------------------
      1          6           0        3.490975    0.058669    0.462746
      2          6           0        4.796822   -0.389092   -0.194716
      3          6           0        5.369065   -1.660477    0.432910
      4          1           0        3.665401    0.223728    1.534789
      5          1           0        2.753632   -0.752520    0.387296
      6          1           0        5.531043    0.423215   -0.119271
      7          1           0        4.619312   -0.552919   -1.265354
      8          1           0        4.657383   -2.487704    0.344563
      9          1           0        5.574294   -1.506023    1.497159
     10          1           0        6.302438   -1.962668   -0.052225
     11          6           0        2.906578    1.328361   -0.153770
     12          6           0        1.600731    1.776122    0.503692
     13          6           0        1.028488    3.047507   -0.123933
     14          1           0        3.643921    2.139550   -0.078320
     15          1           0        2.732152    1.163302   -1.225812
     16          1           0        1.778241    1.939949    1.574331
     17          1           0        0.866510    0.963814    0.428247
     18          1           0        0.823259    2.893053   -1.188182
     19          1           0        1.740170    3.874734   -0.035587
     20          1           0        0.095115    3.349698    0.361202
     21          6           0       -4.385321    1.063119    0.361061
     22          6           0       -3.257620    1.499173   -0.342265
     23          6           0       -2.206473    0.618639   -0.614843
     24          6           0       -2.316686   -0.696967   -0.167268
     25          6           0       -3.427201   -1.161472    0.535783
     26          6           0       -4.466369   -0.263473    0.797072
     27          1           0       -5.197225    1.753923    0.568421
     28          1           0       -3.191951    2.528857   -0.682095
     29          1           0       -1.321935    0.929697   -1.157296
     30          1           0       -3.463948   -2.193867    0.861711
     31          1           0       -5.340952   -0.604897    1.343497
     32          7           0       -1.210224   -1.638394   -0.449858
     33          8           0       -1.331563   -2.792417   -0.044711
     34          8           0       -0.242590   -1.204435   -1.071149
 ---------------------------------------------------------------------

 SCF Done:  E(RHF) =  -669.536490408     A.U. after   15 cycles
 E2 =    -0.2092783984D+01 EUMP2 =    -0.67162927439209D+03

 The electronic state is 1-A.
 Alpha  occ. eigenvalues --  -20.61031 -20.61026 -15.86038 -11.31294 -11.27858
 Alpha  occ. eigenvalues --  -11.27830 -11.27584 -11.26853 -11.26833 -11.21178
 Alpha  occ. eigenvalues --  -11.21118 -11.20820 -11.20735 -11.20475 -11.20313
 Alpha  occ. eigenvalues --   -1.60078  -1.39638  -1.19462  -1.08879  -1.07763
 Alpha  occ. eigenvalues --   -1.04846  -1.03007  -0.95732  -0.95475  -0.86499
 Alpha  occ. eigenvalues --   -0.86252  -0.82565  -0.79073  -0.77661  -0.77503
 Alpha  occ. eigenvalues --   -0.72269  -0.71385  -0.70574  -0.65123  -0.64876
 Alpha  occ. eigenvalues --   -0.64344  -0.62218  -0.60370  -0.58888  -0.57074
 Alpha  occ. eigenvalues --   -0.55365  -0.54756  -0.53174  -0.52919  -0.52227
 Alpha  occ. eigenvalues --   -0.51908  -0.49468  -0.49016  -0.48995  -0.47395
 Alpha  occ. eigenvalues --   -0.46128  -0.45309  -0.45073  -0.44602  -0.43209
 Alpha  occ. eigenvalues --   -0.37438  -0.36432
 Alpha virt. eigenvalues --    0.04851   0.11134   0.16313   0.20457   0.23318
 Alpha virt. eigenvalues --    0.24448   0.26958   0.27240   0.28159   0.28284
 Alpha virt. eigenvalues --    0.29701   0.29760   0.31622   0.31951   0.32499

 Mulliken charges:
               1
     1  C   -0.303598
     2  C   -0.299208
     3  C   -0.476343
     4  H    0.144571
     5  H    0.166911
     6  H    0.147481
     7  H    0.154171
     8  H    0.160413
     9  H    0.152398
    10  H    0.157552
    11  C   -0.295195
    12  C   -0.306910
    13  C   -0.479536
    14  H    0.144698
    15  H    0.153535
    16  H    0.149599
    17  H    0.162342
    18  H    0.150514
    19  H    0.157484
    20  H    0.152559
    21  C   -0.170334
    22  C   -0.220651
    23  C   -0.172072
    24  C    0.157967
    25  C   -0.170450
    26  C   -0.218650
    27  H    0.226106
    28  H    0.224920
    29  H    0.280747
    30  H    0.275694
    31  H    0.223826
    32  N    0.488321
    33  O   -0.457958
    34  O   -0.460905
 Sum of Mulliken charges =  -0.00000

 Dipole moment (field-independent basis, Debye):
    X=             -4.0481    Y=              3.0910    Z=              0.9489  Tot=              5.1809
 Quadrupole moment (field-independent basis, Debye-Ang):
   XX=            -76.3060   YY=            -97.9304   ZZ=            -94.4532
   XY=             -2.5064   XZ=             -3.1575   YZ=             -2.5748

 Normal termination of Gaussian 16 at Wed May  5 18:34:20 2021.
