 Gaussian 16, Revision A.03,
 Gaussian 16:  EM64L-G16RevA.03 25-Dec-2016

 -------------
 #p 6-31g* mp2
 -------------

 ------------------------------------------------------
 Input file generated by CHIRIPA (05-May-2021 14:57:21)
 ------------------------------------------------------
 Symbolic Z-matrix:
 Charge =  0 Multiplicity = 1

                         Standard orientation:
 ---------------------------------------------------------------------
 Center     Atomic      Atomic             Coordinates (Angstroms)
 Number     Number       Type             X           Y           Z
 ---------------------------------------------------------------------
      1          6           0       -1.149579    2.242320    0.991758
      2          6           0       -1.854176    2.214674   -0.216257
      3          6           0       -2.536060    1.060905   -0.614250
      4          6           0       -2.492044   -0.052127    0.223910
      5          6           0       -1.798871   -0.055665    1.433368
      6          6           0       -1.124220    1.109060    1.811270
      7          1           0       -0.622685    3.142851    1.293126
      8          1           0       -1.875604    3.093293   -0.854704
      9          1           0       -3.089330    1.012076   -1.544265
     10          1           0       -1.795783   -0.947171    2.048694
     11          1           0       -0.577838    1.127655    2.749975
     12          7           0       -3.210095   -1.279371   -0.186794
     13          8           0       -3.155889   -2.246737    0.569448
     14          8           0       -3.813512   -1.250680   -1.257168
     15          6           0        1.847338    2.261050   -0.816040
     16          6           0        1.250953    1.236811   -1.558859
     17          6           0        1.535246   -0.102713   -1.277077
     18          6           0        2.424587   -0.383241   -0.240898
     19          6           0        3.034796    0.614893    0.517168
     20          6           0        2.735789    1.947376    0.217780
     21          1           0        1.620777    3.298890   -1.041774
     22          1           0        0.560586    1.477456   -2.362307
     23          1           0        1.087678   -0.915357   -1.836280
     24          1           0        3.718938    0.343828    1.312082
     25          1           0        3.200430    2.740748    0.796325
     26          7           0        2.733344   -1.797609    0.066733
     27          8           0        3.520272   -2.018431    0.984675
     28          8           0        2.182571   -2.658585   -0.615914
 ---------------------------------------------------------------------

 SCF Done:  E(RHF) =  -868.334758828     A.U. after   16 cycles
 E2 =    -0.2605182958D+01 EUMP2 =    -0.87093994178610D+03

 The electronic state is 1-A.
 Alpha  occ. eigenvalues --  -20.61012 -20.60978 -20.60963 -20.60929 -15.86054
 Alpha  occ. eigenvalues --  -15.86011 -11.31566 -11.31520 -11.28169 -11.28165
 Alpha  occ. eigenvalues --  -11.28081 -11.28071 -11.27966 -11.27928 -11.27264
 Alpha  occ. eigenvalues --  -11.27222 -11.27168 -11.27103  -1.60073  -1.60024
 Alpha  occ. eigenvalues --   -1.39621  -1.39573  -1.19812  -1.19666  -1.09220
 Alpha  occ. eigenvalues --   -1.09029  -1.05220  -1.05112  -0.96001  -0.95859
 Alpha  occ. eigenvalues --   -0.86636  -0.86506  -0.82805  -0.82711  -0.77795
 Alpha  occ. eigenvalues --   -0.77740  -0.72268  -0.72224  -0.71406  -0.71354
 Alpha  occ. eigenvalues --   -0.71008  -0.70775  -0.65430  -0.65371  -0.65265
 Alpha  occ. eigenvalues --   -0.65122  -0.62551  -0.62471  -0.55794  -0.55646
 Alpha  occ. eigenvalues --   -0.54409  -0.53305  -0.53244  -0.52582  -0.49042
 Alpha  occ. eigenvalues --   -0.49015  -0.48998  -0.48968  -0.44993  -0.44946
 Alpha  occ. eigenvalues --   -0.38650  -0.37209  -0.36905  -0.36140
 Alpha virt. eigenvalues --    0.04390   0.05100   0.10382   0.11318   0.15832
 Alpha virt. eigenvalues --    0.16581   0.19772   0.21798   0.25982   0.26623
 Alpha virt. eigenvalues --    0.27739   0.28925   0.30226   0.30518   0.32328

 Mulliken charges:
               1
     1  C   -0.161656
     2  C   -0.221124
     3  C   -0.175280
     4  C    0.158624
     5  C   -0.169916
     6  C   -0.216824
     7  H    0.219894
     8  H    0.216857
     9  H    0.274329
    10  H    0.280205
    11  H    0.224807
    12  N    0.487892
    13  O   -0.455149
    14  O   -0.462007
    15  C   -0.173606
    16  C   -0.206710
    17  C   -0.171498
    18  C    0.159568
    19  C   -0.173154
    20  C   -0.221720
    21  H    0.219051
    22  H    0.221054
    23  H    0.279577
    24  H    0.275410
    25  H    0.220888
    26  N    0.487234
    27  O   -0.461379
    28  O   -0.455367
 Sum of Mulliken charges =  -0.00000

 Dipole moment (field-independent basis, Debye):
    X=              1.4035    Y=              9.0162    Z=              0.4295  Tot=              9.1349
 Quadrupole moment (field-independent basis, Debye-Ang):
   XX=           -122.0228   YY=           -109.1363   ZZ=            -97.9172
   XY=              1.8911   XZ=             -1.6948   YZ=             -0.7668

 Normal termination of Gaussian 16 at Thu May  6 08:03:52 2021.
