 Gaussian 16, Revision A.03,
 Gaussian 16:  EM64L-G16RevA.03 25-Dec-2016

 -------------
 #p 6-31g* mp2
 -------------

 ------------------------------------------------------
 Input file generated by CHIRIPA (05-May-2021 14:51:07)
 ------------------------------------------------------
 Symbolic Z-matrix:
 Charge =  0 Multiplicity = 1

                         Standard orientation:
 ---------------------------------------------------------------------
 Center     Atomic      Atomic             Coordinates (Angstroms)
 Number     Number       Type             X           Y           Z
 ---------------------------------------------------------------------
      1          6           0        2.739368   -0.754257   -0.165530
      2          6           0        2.531299   -1.748556    0.977300
      3          6           0        2.018534   -3.105576    0.494222
      4          1           0        1.790701   -0.619238   -0.702881
      5          1           0        3.449835   -1.179803   -0.887709
      6          1           0        1.822494   -1.320676    1.697807
      7          1           0        3.480525   -1.881077    1.512110
      8          1           0        2.726661   -3.557205   -0.208051
      9          1           0        1.059209   -2.993621   -0.021299
     10          1           0        1.876813   -3.800967    1.327412
     11          6           0        3.251772    0.606996    0.301548
     12          6           0        3.459841    1.601295   -0.841282
     13          6           0        3.972606    2.958315   -0.358204
     14          1           0        2.541304    1.032542    1.023727
     15          1           0        4.200439    0.471978    0.838899
     16          1           0        2.510614    1.733816   -1.376092
     17          1           0        4.168645    1.173416   -1.561789
     18          1           0        4.931931    2.846360    0.157317
     19          1           0        3.264479    3.409944    0.344069
     20          1           0        4.114326    3.653707   -1.191394
     21          6           0       -3.214602    0.768054   -0.298731
     22          6           0       -3.231217    1.803540    0.826203
     23          6           0       -3.671488    3.187822    0.349000
     24          1           0       -2.542708    1.113335   -1.096405
     25          1           0       -4.217937    0.702195   -0.741875
     26          1           0       -2.228487    1.866425    1.268008
     27          1           0       -3.903003    1.455663    1.621377
     28          1           0       -4.680717    3.146750   -0.073338
     29          1           0       -2.996686    3.559846   -0.428715
     30          1           0       -3.676174    3.912500    1.169172
     31          6           0       -2.776538   -0.620794    0.162714
     32          6           0       -2.759922   -1.656279   -0.962221
     33          6           0       -2.319652   -3.040561   -0.485019
     34          1           0       -1.773203   -0.554935    0.605858
     35          1           0       -3.448432   -0.966074    0.960387
     36          1           0       -2.088137   -1.308402   -1.757395
     37          1           0       -3.762652   -1.719165   -1.404027
     38          1           0       -2.994454   -3.412586    0.292697
     39          1           0       -1.310423   -2.999490   -0.062679
     40          1           0       -2.314965   -3.765239   -1.305189
 ---------------------------------------------------------------------

 SCF Done:  E(RHF) =  -470.733339636     A.U. after   11 cycles
 E2 =    -0.1582684948D+01 EUMP2 =    -0.47231602458430D+03

 The electronic state is 1-A.
 Alpha  occ. eigenvalues --  -11.21645 -11.21642 -11.21642 -11.21636 -11.21454
 Alpha  occ. eigenvalues --  -11.21450 -11.21394 -11.21391 -11.21103 -11.21102
 Alpha  occ. eigenvalues --  -11.21089 -11.21070  -1.08480  -1.08466  -1.03583
 Alpha  occ. eigenvalues --   -1.03550  -0.96044  -0.95987  -0.87074  -0.86990
 Alpha  occ. eigenvalues --   -0.79666  -0.79591  -0.78295  -0.78276  -0.65179
 Alpha  occ. eigenvalues --   -0.65039  -0.61116  -0.60836  -0.59384  -0.59376
 Alpha  occ. eigenvalues --   -0.57667  -0.57589  -0.55522  -0.55115  -0.52717
 Alpha  occ. eigenvalues --   -0.52696  -0.52515  -0.52362  -0.50183  -0.49733
 Alpha  occ. eigenvalues --   -0.48022  -0.47868  -0.46776  -0.46525  -0.45888
 Alpha  occ. eigenvalues --   -0.45798  -0.45759  -0.45678  -0.43826  -0.43819
 Alpha virt. eigenvalues --    0.20335   0.23415   0.23454   0.24975   0.26040
 Alpha virt. eigenvalues --    0.26662   0.27002   0.27733   0.28193   0.28777
 Alpha virt. eigenvalues --    0.30493   0.31648   0.31688   0.31805   0.31886

 Mulliken charges:
               1
     1  C   -0.298408
     2  C   -0.299725
     3  C   -0.482449
     4  H    0.148922
     5  H    0.149898
     6  H    0.151692
     7  H    0.152345
     8  H    0.155667
     9  H    0.161268
    10  H    0.160744
    11  C   -0.298295
    12  C   -0.299618
    13  C   -0.475740
    14  H    0.149291
    15  H    0.149945
    16  H    0.151597
    17  H    0.152113
    18  H    0.155327
    19  H    0.155195
    20  H    0.160386
    21  C   -0.298298
    22  C   -0.299586
    23  C   -0.475738
    24  H    0.149419
    25  H    0.149829
    26  H    0.151489
    27  H    0.152139
    28  H    0.155343
    29  H    0.155168
    30  H    0.160378
    31  C   -0.298429
    32  C   -0.299556
    33  C   -0.482846
    34  H    0.148719
    35  H    0.150027
    36  H    0.151533
    37  H    0.152264
    38  H    0.155538
    39  H    0.161855
    40  H    0.160599
 Sum of Mulliken charges =  -0.00000

 Dipole moment (field-independent basis, Debye):
    X=              0.0041    Y=             -0.0102    Z=              0.0021  Tot=              0.0112
 Quadrupole moment (field-independent basis, Debye-Ang):
   XX=            -82.9832   YY=            -86.7543   ZZ=            -84.8270
   XY=             -0.1617   XZ=             -0.4511   YZ=             -0.0179

 Normal termination of Gaussian 16 at Thu May  6 02:04:25 2021.
