 Gaussian 16, Revision A.03,
 Gaussian 16:  EM64L-G16RevA.03 25-Dec-2016

 -------------
 #p 6-31g* mp2
 -------------

 ------------------------------------------------------
 Input file generated by CHIRIPA (05-May-2021 14:51:13)
 ------------------------------------------------------
 Symbolic Z-matrix:
 Charge =  0 Multiplicity = 1

                         Standard orientation:
 ---------------------------------------------------------------------
 Center     Atomic      Atomic             Coordinates (Angstroms)
 Number     Number       Type             X           Y           Z
 ---------------------------------------------------------------------
      1          6           0        2.030625   -1.318709   -0.452213
      2          6           0        0.974339   -2.146756    0.280304
      3          6           0        0.028779   -2.876562   -0.674208
      4          1           0        1.529159   -0.589211   -1.102837
      5          1           0        2.611230   -1.978515   -1.111718
      6          1           0        0.396805   -1.485820    0.939269
      7          1           0        1.478377   -2.874238    0.929404
      8          1           0        0.587475   -3.558581   -1.323293
      9          1           0       -0.500243   -2.162274   -1.313372
     10          1           0       -0.718202   -3.462327   -0.129453
     11          6           0        2.983385   -0.583196    0.488530
     12          6           0        4.039671    0.244851   -0.243987
     13          6           0        4.985231    0.974657    0.710526
     14          1           0        2.402780    0.076611    1.148036
     15          1           0        3.484850   -1.312693    1.139154
     16          1           0        3.535633    0.972334   -0.893087
     17          1           0        4.617205   -0.416084   -0.902951
     18          1           0        5.514253    0.260370    1.349689
     19          1           0        4.426535    1.656676    1.359610
     20          1           0        5.732212    1.560423    0.165770
     21          6           0       -2.874417    0.296136   -0.158358
     22          6           0       -4.168365    0.143513    0.641885
     23          6           0       -4.891999   -1.171502    0.350540
     24          1           0       -3.104302    0.232247   -1.230746
     25          1           0       -2.208870   -0.547984    0.069471
     26          1           0       -4.830709    0.988399    0.413665
     27          1           0       -3.935398    0.207964    1.712487
     28          1           0       -4.252526   -2.025639    0.595742
     29          1           0       -5.152924   -1.240770   -0.710461
     30          1           0       -5.814266   -1.259867    0.933185
     31          6           0       -2.139593    1.605769    0.122040
     32          6           0       -0.845645    1.758391   -0.678203
     33          6           0       -0.122011    3.073407   -0.386857
     34          1           0       -2.805140    2.449888   -0.105787
     35          1           0       -1.909708    1.669657    1.194429
     36          1           0       -1.078612    1.693940   -1.748804
     37          1           0       -0.183301    0.913506   -0.449982
     38          1           0        0.138913    3.142674    0.674144
     39          1           0       -0.761484    3.927544   -0.632059
     40          1           0        0.800256    3.161772   -0.969502
 ---------------------------------------------------------------------

 SCF Done:  E(RHF) =  -470.732972602     A.U. after   11 cycles
 E2 =    -0.1584661116D+01 EUMP2 =    -0.47231763371879D+03

 The electronic state is 1-A.
 Alpha  occ. eigenvalues --  -11.21653 -11.21653 -11.21616 -11.21613 -11.21438
 Alpha  occ. eigenvalues --  -11.21418 -11.21369 -11.21354 -11.21152 -11.21078
 Alpha  occ. eigenvalues --  -11.21073 -11.21071  -1.08515  -1.08416  -1.03577
 Alpha  occ. eigenvalues --   -1.03549  -0.96042  -0.95973  -0.87061  -0.86986
 Alpha  occ. eigenvalues --   -0.79652  -0.79608  -0.78338  -0.78223  -0.65441
 Alpha  occ. eigenvalues --   -0.64808  -0.61023  -0.60897  -0.59403  -0.59348
 Alpha  occ. eigenvalues --   -0.57657  -0.57593  -0.55456  -0.55135  -0.52713
 Alpha  occ. eigenvalues --   -0.52692  -0.52472  -0.52389  -0.50098  -0.49818
 Alpha  occ. eigenvalues --   -0.48008  -0.47890  -0.46746  -0.46627  -0.46049
 Alpha  occ. eigenvalues --   -0.45804  -0.45721  -0.45376  -0.43821  -0.43803
 Alpha virt. eigenvalues --    0.19335   0.22153   0.23761   0.24774   0.25992
 Alpha virt. eigenvalues --    0.26422   0.26948   0.27661   0.28116   0.30166
 Alpha virt. eigenvalues --    0.30652   0.31341   0.31856   0.31896   0.32174

 Mulliken charges:
               1
     1  C   -0.303287
     2  C   -0.302607
     3  C   -0.477961
     4  H    0.153849
     5  H    0.150539
     6  H    0.151870
     7  H    0.152660
     8  H    0.155548
     9  H    0.158434
    10  H    0.159567
    11  C   -0.298899
    12  C   -0.299822
    13  C   -0.475769
    14  H    0.149512
    15  H    0.149842
    16  H    0.152235
    17  H    0.151990
    18  H    0.155096
    19  H    0.155451
    20  H    0.160311
    21  C   -0.305332
    22  C   -0.299454
    23  C   -0.475731
    24  H    0.149379
    25  H    0.157306
    26  H    0.151975
    27  H    0.151796
    28  H    0.155408
    29  H    0.155290
    30  H    0.160231
    31  C   -0.297202
    32  C   -0.309938
    33  C   -0.475703
    34  H    0.149806
    35  H    0.149162
    36  H    0.151780
    37  H    0.161724
    38  H    0.154942
    39  H    0.155884
    40  H    0.160119
 Sum of Mulliken charges =  -0.00000

 Dipole moment (field-independent basis, Debye):
    X=             -0.0011    Y=             -0.0055    Z=             -0.0148  Tot=              0.0158
 Quadrupole moment (field-independent basis, Debye-Ang):
   XX=            -85.0886   YY=            -85.1045   ZZ=            -84.5334
   XY=             -1.7686   XZ=             -0.0967   YZ=             -0.7481

 Normal termination of Gaussian 16 at Wed May  5 23:12:16 2021.
