 Gaussian 16, Revision A.03,
 Gaussian 16:  EM64L-G16RevA.03 25-Dec-2016

 -------------
 #p 6-31g* mp2
 -------------

 ------------------------------------------------------
 Input file generated by CHIRIPA (05-May-2021 14:55:24)
 ------------------------------------------------------
 Symbolic Z-matrix:
 Charge =  0 Multiplicity = 1

                         Standard orientation:
 ---------------------------------------------------------------------
 Center     Atomic      Atomic             Coordinates (Angstroms)
 Number     Number       Type             X           Y           Z
 ---------------------------------------------------------------------
      1          6           0        5.939124    1.174575   -0.118802
      2          6           0        4.967332    1.321489   -1.114070
      3          6           0        3.724492    0.693168   -0.991149
      4          6           0        3.486114   -0.078131    0.145321
      5          6           0        4.433904   -0.243676    1.154073
      6          6           0        5.669783    0.393837    1.010102
      7          1           0        6.901888    1.666240   -0.222466
      8          1           0        5.173733    1.927213   -1.991876
      9          1           0        2.954136    0.789989   -1.746526
     10          1           0        4.198942   -0.853893    2.017696
     11          1           0        6.422600    0.277968    1.784626
     12          7           0        2.174060   -0.748172    0.286595
     13          8           0        1.988710   -1.422283    1.297464
     14          8           0        1.355866   -0.586553   -0.616220
     15          6           0       -4.316077   -0.672131   -0.237825
     16          6           0       -2.974250   -0.417733   -0.925406
     17          6           0       -2.139515   -1.689213   -1.081450
     18          1           0       -4.135979   -1.117771    0.750058
     19          1           0       -4.882096   -1.414658   -0.817197
     20          1           0       -2.411510    0.325122   -0.345659
     21          1           0       -3.157557    0.027531   -1.911690
     22          1           0       -2.677744   -2.432557   -1.678401
     23          1           0       -1.927458   -2.133274   -0.103471
     24          1           0       -1.184523   -1.484415   -1.575320
     25          6           0       -5.161956    0.589444   -0.074591
     26          6           0       -6.503782    0.335045    0.612989
     27          6           0       -7.338517    1.606525    0.769033
     28          1           0       -4.595937    1.331971    0.504780
     29          1           0       -5.342054    1.035083   -1.062475
     30          1           0       -6.320475   -0.110218    1.599274
     31          1           0       -7.066522   -0.407810    0.033242
     32          1           0       -7.550575    2.050587   -0.208945
     33          1           0       -6.800288    2.349869    1.365984
     34          1           0       -8.293510    1.401726    1.262903
 ---------------------------------------------------------------------

 SCF Done:  E(RHF) =  -669.535954716     A.U. after   15 cycles
 E2 =    -0.2090785754D+01 EUMP2 =    -0.67162674047016D+03

 The electronic state is 1-A.
 Alpha  occ. eigenvalues --  -20.60932 -20.60926 -15.85972 -11.31296 -11.27859
 Alpha  occ. eigenvalues --  -11.27856 -11.27597 -11.26868 -11.26858 -11.20942
 Alpha  occ. eigenvalues --  -11.20568 -11.20541 -11.20326 -11.20226 -11.19216
 Alpha  occ. eigenvalues --   -1.59994  -1.39551  -1.19464  -1.08867  -1.07463
 Alpha  occ. eigenvalues --   -1.04861  -1.02458  -0.95711  -0.94885  -0.86262
 Alpha  occ. eigenvalues --   -0.85906  -0.82543  -0.78576  -0.77595  -0.77232
 Alpha  occ. eigenvalues --   -0.72199  -0.71310  -0.70573  -0.65121  -0.64864
 Alpha  occ. eigenvalues --   -0.64105  -0.62209  -0.59863  -0.58326  -0.56471
 Alpha  occ. eigenvalues --   -0.55365  -0.54192  -0.53193  -0.52954  -0.51553
 Alpha  occ. eigenvalues --   -0.51326  -0.49006  -0.48943  -0.48752  -0.46856
 Alpha  occ. eigenvalues --   -0.45639  -0.44967  -0.44771  -0.44677  -0.42685
 Alpha  occ. eigenvalues --   -0.37444  -0.36463
 Alpha virt. eigenvalues --    0.04936   0.11192   0.16434   0.21323   0.23755
 Alpha virt. eigenvalues --    0.25446   0.27245   0.27559   0.28172   0.28410
 Alpha virt. eigenvalues --    0.29176   0.30897   0.32398   0.32428   0.32623

 Mulliken charges:
               1
     1  C   -0.170616
     2  C   -0.218530
     3  C   -0.170823
     4  C    0.157617
     5  C   -0.170540
     6  C   -0.218589
     7  H    0.225988
     8  H    0.223831
     9  H    0.275634
    10  H    0.275851
    11  H    0.223808
    12  N    0.491615
    13  O   -0.459213
    14  O   -0.462700
    15  C   -0.297585
    16  C   -0.299129
    17  C   -0.477527
    18  H    0.149830
    19  H    0.146481
    20  H    0.154466
    21  H    0.145080
    22  H    0.142977
    23  H    0.158939
    24  H    0.179954
    25  C   -0.297285
    26  C   -0.298904
    27  C   -0.475113
    28  H    0.148436
    29  H    0.147255
    30  H    0.151613
    31  H    0.150766
    32  H    0.153894
    33  H    0.154241
    34  H    0.158278
 Sum of Mulliken charges =  -0.00000

 Dipole moment (field-independent basis, Debye):
    X=              5.0159    Y=              2.3400    Z=             -0.4624  Tot=              5.5541
 Quadrupole moment (field-independent basis, Debye-Ang):
   XX=            -64.4915   YY=            -95.9598   ZZ=            -90.5540
   XY=              8.1431   XZ=              0.7644   YZ=             -1.7378

 Normal termination of Gaussian 16 at Wed May  5 17:34:36 2021.
