 Gaussian 16, Revision A.03,
 Gaussian 16:  EM64L-G16RevA.03 25-Dec-2016

 -------------
 #p 6-31g* mp2
 -------------

 ------------------------------------------------------
 Input file generated by CHIRIPA (05-May-2021 14:53:14)
 ------------------------------------------------------
 Symbolic Z-matrix:
 Charge =  0 Multiplicity = 1

                         Standard orientation:
 ---------------------------------------------------------------------
 Center     Atomic      Atomic             Coordinates (Angstroms)
 Number     Number       Type             X           Y           Z
 ---------------------------------------------------------------------
      1          6           0       -3.115330    0.901883    0.498515
      2          6           0       -2.492720    2.100636   -0.217958
      3          6           0       -1.599774    2.938279    0.697899
      4          1           0       -3.700610    1.259246    1.356817
      5          1           0       -2.313846    0.271238    0.907544
      6          1           0       -3.295109    2.728101   -0.626706
      7          1           0       -1.909012    1.740390   -1.074768
      8          1           0       -0.779431    2.332101    1.095624
      9          1           0       -2.173404    3.325424    1.546232
     10          1           0       -1.165052    3.789919    0.165370
     11          6           0       -4.010692    0.054784   -0.403971
     12          6           0       -4.633301   -1.143969    0.312501
     13          6           0       -5.526248   -1.981613   -0.603356
     14          1           0       -4.812176    0.685429   -0.813001
     15          1           0       -3.425412   -0.302580   -1.262274
     16          1           0       -5.217010   -0.783723    1.169311
     17          1           0       -3.830913   -1.771435    0.721249
     18          1           0       -4.952618   -2.368757   -1.451689
     19          1           0       -6.346591   -1.375434   -1.001081
     20          1           0       -5.960970   -2.833252   -0.070827
     21          6           0        5.228557    0.223887   -0.213037
     22          6           0        4.252582    1.145869   -0.605396
     23          6           0        2.894919    0.825534   -0.512189
     24          6           0        2.547233   -0.431471   -0.019905
     25          6           0        3.496117   -1.371573    0.378988
     26          6           0        4.847881   -1.029679    0.277038
     27          1           0        6.280930    0.481104   -0.288839
     28          1           0        4.545298    2.120150   -0.986366
     29          1           0        2.118613    1.520322   -0.808901
     30          1           0        3.173537   -2.334946    0.754851
     31          1           0        5.603662   -1.747692    0.582486
     32          7           0        1.113059   -0.782005    0.083395
     33          8           0        0.832740   -1.896046    0.520398
     34          8           0        0.296430    0.063924   -0.274594
 ---------------------------------------------------------------------

 SCF Done:  E(RHF) =  -669.536421974     A.U. after   15 cycles
 E2 =    -0.2092553023D+01 EUMP2 =    -0.67162897499636D+03

 The electronic state is 1-A.
 Alpha  occ. eigenvalues --  -20.61181 -20.61174 -15.86182 -11.31411 -11.27963
 Alpha  occ. eigenvalues --  -11.27955 -11.27686 -11.26949 -11.26938 -11.20322
 Alpha  occ. eigenvalues --  -11.20056 -11.20034 -11.19933 -11.19814 -11.19625
 Alpha  occ. eigenvalues --   -1.60229  -1.39790  -1.19571  -1.08997  -1.06932
 Alpha  occ. eigenvalues --   -1.04951  -1.02180  -0.95853  -0.94660  -0.86357
 Alpha  occ. eigenvalues --   -0.85690  -0.82695  -0.78263  -0.77758  -0.76742
 Alpha  occ. eigenvalues --   -0.72451  -0.71531  -0.70680  -0.65243  -0.64956
 Alpha  occ. eigenvalues --   -0.63482  -0.62298  -0.59517  -0.58053  -0.56293
 Alpha  occ. eigenvalues --   -0.55462  -0.53936  -0.53289  -0.53041  -0.51434
 Alpha  occ. eigenvalues --   -0.51117  -0.49284  -0.49161  -0.48469  -0.46601
 Alpha  occ. eigenvalues --   -0.45453  -0.45056  -0.44307  -0.44030  -0.42406
 Alpha  occ. eigenvalues --   -0.37545  -0.36547
 Alpha virt. eigenvalues --    0.04728   0.11105   0.16218   0.21116   0.24357
 Alpha virt. eigenvalues --    0.25288   0.27172   0.27774   0.28626   0.29011
 Alpha virt. eigenvalues --    0.29226   0.30931   0.32057   0.32816   0.33000

 Mulliken charges:
               1
     1  C   -0.301537
     2  C   -0.294595
     3  C   -0.478221
     4  H    0.139345
     5  H    0.171114
     6  H    0.142009
     7  H    0.161006
     8  H    0.163026
     9  H    0.148732
    10  H    0.148489
    11  C   -0.297438
    12  C   -0.300320
    13  C   -0.474865
    14  H    0.142053
    15  H    0.153715
    16  H    0.147293
    17  H    0.158674
    18  H    0.154994
    19  H    0.151493
    20  H    0.156595
    21  C   -0.170236
    22  C   -0.218580
    23  C   -0.170828
    24  C    0.156870
    25  C   -0.170362
    26  C   -0.218652
    27  H    0.226498
    28  H    0.224509
    29  H    0.276964
    30  H    0.276005
    31  H    0.224223
    32  N    0.494252
    33  O   -0.457903
    34  O   -0.464324
 Sum of Mulliken charges =  -0.00000

 Dipole moment (field-independent basis, Debye):
    X=              5.5374    Y=              0.9796    Z=             -0.3868  Tot=              5.6366
 Quadrupole moment (field-independent basis, Debye-Ang):
   XX=            -70.6142   YY=            -93.1359   ZZ=            -95.2230
   XY=             -0.6956   XZ=             -1.0941   YZ=             -2.2454

 Normal termination of Gaussian 16 at Thu May  6 18:46:06 2021.
