 Gaussian 16, Revision A.03,
 Gaussian 16:  EM64L-G16RevA.03 25-Dec-2016

 -------------
 #p 6-31g* mp2
 -------------

 ------------------------------------------------------
 Input file generated by CHIRIPA (05-May-2021 14:53:17)
 ------------------------------------------------------
 Symbolic Z-matrix:
 Charge =  0 Multiplicity = 1

                         Standard orientation:
 ---------------------------------------------------------------------
 Center     Atomic      Atomic             Coordinates (Angstroms)
 Number     Number       Type             X           Y           Z
 ---------------------------------------------------------------------
      1          6           0       -2.881598   -0.148447   -0.614981
      2          6           0       -3.031847   -1.556388   -0.037821
      3          6           0       -3.276604   -2.613754   -1.114790
      4          1           0       -3.786985    0.106865   -1.182464
      5          1           0       -2.050036   -0.140945   -1.333204
      6          1           0       -3.861993   -1.560903    0.680130
      7          1           0       -2.126076   -1.808303    0.528514
      8          1           0       -2.445005   -2.638481   -1.826431
      9          1           0       -4.190784   -2.389675   -1.673953
     10          1           0       -3.381025   -3.612787   -0.680175
     11          6           0       -2.636418    0.919623    0.449368
     12          6           0       -2.486170    2.327563   -0.127793
     13          6           0       -2.241412    3.384930    0.949177
     14          1           0       -3.467980    0.912121    1.167591
     15          1           0       -1.731031    0.664311    1.016851
     16          1           0       -3.391940    2.579479   -0.694127
     17          1           0       -1.656023    2.332078   -0.845743
     18          1           0       -1.327232    3.160850    1.508340
     19          1           0       -3.073011    3.409656    1.660817
     20          1           0       -2.136991    4.383962    0.514562
     21          6           0        1.342446   -1.479401    2.142395
     22          6           0        0.844437   -1.848125    0.888381
     23          6           0        1.287754   -1.202216   -0.269557
     24          6           0        2.234076   -0.187340   -0.136172
     25          6           0        2.749245    0.202752    1.099028
     26          6           0        2.291587   -0.456942    2.243538
     27          1           0        0.992497   -1.986512    3.036693
     28          1           0        0.107260   -2.641825    0.806816
     29          1           0        0.918967   -1.467619   -1.252906
     30          1           0        3.483447    0.997680    1.148552
     31          1           0        2.680105   -0.168484    3.216107
     32          7           0        2.710986    0.503751   -1.354921
     33          8           0        3.545247    1.394710   -1.210575
     34          8           0        2.241497    0.141382   -2.431446
 ---------------------------------------------------------------------

 SCF Done:  E(RHF) =  -669.535451592     A.U. after   15 cycles
 E2 =    -0.2093015886D+01 EUMP2 =    -0.67162846747866D+03

 The electronic state is 1-A.
 Alpha  occ. eigenvalues --  -20.60856 -20.60850 -15.85910 -11.31300 -11.27882
 Alpha  occ. eigenvalues --  -11.27864 -11.27614 -11.26885 -11.26875 -11.22128
 Alpha  occ. eigenvalues --  -11.21671 -11.21633 -11.21625 -11.21520 -11.21104
 Alpha  occ. eigenvalues --   -1.59931  -1.39483  -1.19479  -1.08868  -1.08691
 Alpha  occ. eigenvalues --   -1.04886  -1.03815  -0.96253  -0.95694  -0.87272
 Alpha  occ. eigenvalues --   -0.86280  -0.82528  -0.79895  -0.78477  -0.77571
 Alpha  occ. eigenvalues --   -0.72126  -0.71256  -0.70574  -0.65412  -0.65120
 Alpha  occ. eigenvalues --   -0.64856  -0.62272  -0.61167  -0.59640  -0.57855
 Alpha  occ. eigenvalues --   -0.55552  -0.55368  -0.53216  -0.53010  -0.52936
 Alpha  occ. eigenvalues --   -0.52664  -0.50202  -0.48891  -0.48881  -0.48193
 Alpha  occ. eigenvalues --   -0.46923  -0.46017  -0.45914  -0.44883  -0.44045
 Alpha  occ. eigenvalues --   -0.37442  -0.36449
 Alpha virt. eigenvalues --    0.04945   0.11055   0.16335   0.19832   0.22926
 Alpha virt. eigenvalues --    0.23864   0.25880   0.26261   0.27515   0.28302
 Alpha virt. eigenvalues --    0.28930   0.30149   0.31351   0.31414   0.32228

 Mulliken charges:
               1
     1  C   -0.298517
     2  C   -0.304234
     3  C   -0.476625
     4  H    0.152105
     5  H    0.151634
     6  H    0.153517
     7  H    0.144427
     8  H    0.153115
     9  H    0.160276
    10  H    0.158310
    11  C   -0.300573
    12  C   -0.300783
    13  C   -0.475697
    14  H    0.147882
    15  H    0.150922
    16  H    0.152444
    17  H    0.156789
    18  H    0.154126
    19  H    0.153623
    20  H    0.162580
    21  C   -0.172202
    22  C   -0.217580
    23  C   -0.171970
    24  C    0.158253
    25  C   -0.170721
    26  C   -0.218580
    27  H    0.226659
    28  H    0.226692
    29  H    0.276140
    30  H    0.276116
    31  H    0.224120
    32  N    0.488048
    33  O   -0.459918
    34  O   -0.460378
 Sum of Mulliken charges =  -0.00000

 Dipole moment (field-independent basis, Debye):
    X=             -1.6504    Y=             -2.3616    Z=              4.2683  Tot=              5.1497
 Quadrupole moment (field-independent basis, Debye-Ang):
   XX=            -99.8515   YY=            -93.4817   ZZ=            -95.1551
   XY=             -3.5862   XZ=             11.9105   YZ=              0.6656

 Normal termination of Gaussian 16 at Wed May  5 20:24:31 2021.
