 Gaussian 16, Revision A.03,
 Gaussian 16:  EM64L-G16RevA.03 25-Dec-2016

 -------------
 #p 6-31g* mp2
 -------------

 ------------------------------------------------------
 Input file generated by CHIRIPA (05-May-2021 14:53:16)
 ------------------------------------------------------
 Symbolic Z-matrix:
 Charge =  0 Multiplicity = 1

                         Standard orientation:
 ---------------------------------------------------------------------
 Center     Atomic      Atomic             Coordinates (Angstroms)
 Number     Number       Type             X           Y           Z
 ---------------------------------------------------------------------
      1          6           0        3.414411    0.858095   -0.191144
      2          6           0        2.879285    1.634417    1.012579
      3          6           0        3.017201    3.148298    0.848457
      4          1           0        4.470821    1.116819   -0.346080
      5          1           0        2.877975    1.180303   -1.094367
      6          1           0        3.415614    1.309845    1.913479
      7          1           0        1.824079    1.373669    1.164785
      8          1           0        2.467276    3.491843   -0.033676
      9          1           0        4.067854    3.427656    0.719271
     10          1           0        2.628529    3.683697    1.720319
     11          6           0        3.283505   -0.656615   -0.041994
     12          6           0        3.818631   -1.432937   -1.245717
     13          6           0        3.680714   -2.946819   -1.081595
     14          1           0        3.819941   -0.978823    0.861230
     15          1           0        2.227095   -0.915340    0.112943
     16          1           0        4.873837   -1.172189   -1.397923
     17          1           0        3.282302   -1.108365   -2.146617
     18          1           0        2.630062   -3.226177   -0.952409
     19          1           0        4.230639   -3.290363   -0.199461
     20          1           0        4.069387   -3.482217   -1.953456
     21          6           0       -1.784293   -1.152070    2.217439
     22          6           0       -3.094070   -1.381635    1.783496
     23          6           0       -3.565805   -0.792124    0.606852
     24          6           0       -2.696816    0.025066   -0.114500
     25          6           0       -1.386571    0.273045    0.291772
     26          6           0       -0.936220   -0.326917    1.471508
     27          1           0       -1.426144   -1.614076    3.132686
     28          1           0       -3.754918   -2.022004    2.360777
     29          1           0       -4.575128   -0.952853    0.247898
     30          1           0       -0.751225    0.916200   -0.304974
     31          1           0        0.081459   -0.146853    1.806102
     32          7           0       -3.184901    0.654688   -1.361797
     33          8           0       -2.399548    1.370577   -1.979341
     34          8           0       -4.343574    0.420373   -1.698267
 ---------------------------------------------------------------------

 SCF Done:  E(RHF) =  -669.535529926     A.U. after   15 cycles
 E2 =    -0.2091992761D+01 EUMP2 =    -0.67162752268790D+03

 The electronic state is 1-A.
 Alpha  occ. eigenvalues --  -20.60775 -20.60770 -15.85828 -11.31191 -11.27764
 Alpha  occ. eigenvalues --  -11.27759 -11.27492 -11.26773 -11.26728 -11.22453
 Alpha  occ. eigenvalues --  -11.22046 -11.21993 -11.21956 -11.21606 -11.21419
 Alpha  occ. eigenvalues --   -1.59850  -1.39404  -1.19362  -1.09045  -1.08754
 Alpha  occ. eigenvalues --   -1.04767  -1.04081  -0.96498  -0.95592  -0.87516
 Alpha  occ. eigenvalues --   -0.86161  -0.82433  -0.80174  -0.78875  -0.77467
 Alpha  occ. eigenvalues --   -0.72047  -0.71173  -0.70470  -0.65724  -0.65007
 Alpha  occ. eigenvalues --   -0.64751  -0.62154  -0.61436  -0.59874  -0.58121
 Alpha  occ. eigenvalues --   -0.55776  -0.55263  -0.53202  -0.53098  -0.52912
 Alpha  occ. eigenvalues --   -0.52855  -0.50442  -0.48810  -0.48802  -0.48465
 Alpha  occ. eigenvalues --   -0.47213  -0.46378  -0.46295  -0.44811  -0.44343
 Alpha  occ. eigenvalues --   -0.37338  -0.36362
 Alpha virt. eigenvalues --    0.05043   0.11268   0.16456   0.19016   0.22750
 Alpha virt. eigenvalues --    0.23766   0.24760   0.26217   0.27483   0.28278
 Alpha virt. eigenvalues --    0.29578   0.30407   0.31217   0.31472   0.32473

 Mulliken charges:
               1
     1  C   -0.299820
     2  C   -0.305043
     3  C   -0.476129
     4  H    0.153686
     5  H    0.153791
     6  H    0.152998
     7  H    0.142812
     8  H    0.159754
     9  H    0.158444
    10  H    0.161451
    11  C   -0.301210
    12  C   -0.300255
    13  C   -0.476404
    14  H    0.148967
    15  H    0.144952
    16  H    0.153715
    17  H    0.155965
    18  H    0.155618
    19  H    0.154221
    20  H    0.162869
    21  C   -0.171141
    22  C   -0.218541
    23  C   -0.170825
    24  C    0.158718
    25  C   -0.173667
    26  C   -0.224942
    27  H    0.226259
    28  H    0.223482
    29  H    0.275652
    30  H    0.275358
    31  H    0.232162
    32  N    0.488222
    33  O   -0.460713
    34  O   -0.460405
 Sum of Mulliken charges =  -0.00000

 Dipole moment (field-independent basis, Debye):
    X=              1.8694    Y=             -2.1832    Z=              4.3202  Tot=              5.1890
 Quadrupole moment (field-independent basis, Debye-Ang):
   XX=            -98.6406   YY=            -95.4558   ZZ=            -96.0937
   XY=              8.5258   XZ=            -12.6979   YZ=             -0.0610

 Normal termination of Gaussian 16 at Thu May  6 15:34:27 2021.
